ITEM: TIMESTEP
210000
ITEM: NUMBER OF CELLS
100
ITEM: BOX BOUNDS ss pp pp
0 0.001
0 1e-05
-0.5 0.5
ITEM: CELLS c_particles[1] 
152 
142 
144 
156 
126 
122 
139 
124 
126 
158 
126 
140 
124 
105 
112 
131 
126 
118 
129 
144 
133 
104 
99 
121 
110 
99 
116 
106 
113 
118 
110 
118 
120 
88 
97 
100 
93 
94 
120 
102 
106 
108 
90 
92 
93 
89 
87 
97 
95 
108 
97 
86 
86 
102 
102 
91 
91 
90 
95 
86 
106 
95 
86 
90 
89 
81 
71 
73 
88 
85 
92 
87 
94 
75 
81 
83 
80 
72 
91 
95 
81 
71 
93 
72 
75 
79 
76 
83 
94 
80 
76 
85 
89 
76 
80 
81 
80 
75 
74 
70 
