ITEM: TIMESTEP
100000
ITEM: NUMBER OF CELLS
100
ITEM: BOX BOUNDS ss pp pp
0 0.001
0 1e-05
-0.5 0.5
ITEM: CELLS c_particles[1] 
146 
166 
136 
163 
138 
130 
149 
160 
150 
128 
138 
110 
136 
120 
136 
121 
119 
97 
126 
119 
109 
116 
115 
115 
122 
99 
105 
110 
114 
123 
105 
95 
111 
106 
111 
122 
99 
111 
90 
119 
103 
105 
107 
113 
102 
104 
93 
93 
99 
101 
93 
101 
87 
102 
77 
87 
84 
87 
95 
104 
66 
98 
90 
91 
78 
87 
84 
82 
93 
83 
83 
94 
82 
78 
75 
82 
86 
83 
82 
75 
86 
70 
86 
70 
87 
71 
69 
75 
67 
82 
72 
76 
67 
77 
74 
81 
68 
93 
58 
77 
