ITEM: TIMESTEP
140000
ITEM: NUMBER OF CELLS
100
ITEM: BOX BOUNDS ss pp pp
0 0.001
0 1e-05
-0.5 0.5
ITEM: CELLS c_particles[1] 
147 
156 
137 
146 
140 
129 
147 
119 
140 
142 
122 
114 
127 
110 
129 
101 
145 
115 
134 
99 
117 
130 
122 
115 
115 
123 
112 
123 
109 
117 
123 
108 
104 
109 
116 
96 
107 
78 
93 
77 
98 
101 
123 
109 
86 
95 
111 
109 
114 
107 
92 
89 
97 
76 
93 
90 
93 
100 
91 
77 
88 
94 
97 
100 
83 
82 
76 
84 
105 
95 
76 
79 
60 
94 
84 
77 
90 
72 
91 
76 
74 
72 
98 
73 
88 
85 
88 
71 
80 
86 
93 
85 
72 
64 
61 
81 
80 
75 
69 
58 
