ITEM: TIMESTEP
55000
ITEM: NUMBER OF CELLS
100
ITEM: BOX BOUNDS ss pp pp
0 0.001
0 1e-05
-0.5 0.5
ITEM: CELLS f_temp1[*] 
347.118 
354.95 
361.625 
366.359 
372.187 
377.908 
381.963 
385.897 
391.374 
395.426 
401.23 
405.815 
409.537 
415.056 
418.337 
423.734 
427.612 
430.52 
434.875 
437.882 
441.454 
446.367 
450.363 
454.679 
458.139 
460.844 
466.377 
469.23 
473.314 
476.633 
480.202 
484.168 
486.245 
490.163 
493.758 
495.726 
500.396 
504.286 
506.665 
508.759 
510.631 
514.305 
518.934 
521.971 
524.231 
528.321 
532.969 
536.032 
540.347 
544.473 
546.85 
551.034 
554.196 
558.989 
560.195 
564.029 
567.504 
570.231 
573.261 
577.756 
580.968 
586.714 
586.865 
591.011 
592.947 
595.746 
599.522 
603.423 
606.03 
608.645 
610.401 
614.024 
616.971 
620.608 
622.82 
628.257 
632.274 
637.244 
634.856 
640.804 
644.353 
649.06 
654.676 
656.846 
658.297 
663.994 
667.419 
675.071 
673.176 
675.252 
678.932 
684.453 
689.459 
690.808 
695.148 
699.475 
704.672 
707.834 
714.706 
719.639 
