ITEM: TIMESTEP
195000
ITEM: NUMBER OF CELLS
100
ITEM: BOX BOUNDS ss pp pp
0 0.001
0 1e-05
-0.5 0.5
ITEM: CELLS f_temp1[*] 
348.51 
355.931 
362.057 
367.602 
373.147 
378.272 
383.907 
387.32 
392.131 
396.801 
401.717 
404.848 
410.246 
414.337 
417.736 
423.239 
425.273 
430.143 
434.123 
438.824 
443.35 
446.637 
450.266 
455.348 
458.694 
462.922 
465.859 
468.942 
472.638 
477.863 
481.446 
484.054 
488.755 
493.065 
493.425 
498.15 
501.501 
502.997 
507.984 
510.95 
514.891 
518.584 
520.377 
524.421 
527.388 
530.162 
534.679 
538.582 
541.299 
544.032 
547.844 
551.27 
553.026 
557.847 
559.775 
562.189 
566.418 
572.316 
574.266 
577.981 
581.05 
583.389 
586.238 
589.067 
593.238 
597.011 
599.46 
602.017 
604.489 
607.069 
611.215 
614.643 
616.462 
620.527 
624.442 
629.347 
630.545 
637.234 
633.055 
641.92 
644.865 
648.325 
650.308 
655.906 
660.459 
663.357 
666.832 
672.497 
669.447 
672.626 
675.905 
681.811 
687.057 
689.77 
694.9 
701.385 
705.112 
708.664 
714.024 
722.258 
