ITEM: TIMESTEP
130000
ITEM: NUMBER OF CELLS
100
ITEM: BOX BOUNDS ss pp pp
0 0.001
0 1e-05
-0.5 0.5
ITEM: CELLS f_temp1[*] 
347.457 
356.185 
361.791 
367.561 
372.542 
377.731 
383.186 
389.463 
393.803 
396.843 
400.527 
404.592 
410.146 
415.195 
418.62 
422.83 
425.755 
431.315 
434.981 
437.413 
442.528 
445.569 
449.198 
452.662 
457.169 
461.311 
465.439 
467.264 
471.56 
475.784 
479.401 
485.995 
488.881 
494.234 
496.185 
500.976 
501.66 
506.682 
509.958 
513.182 
516.662 
517.933 
519.955 
524.853 
527.217 
531.804 
537.469 
540.8 
544.281 
547.401 
550.067 
554.44 
555.961 
560.043 
561.235 
565.456 
568.871 
572.467 
577.031 
576.908 
581.772 
585.291 
588.771 
592.341 
593.212 
598.422 
601.567 
605.22 
609.02 
613.035 
613.645 
616.961 
620.255 
623.08 
626.967 
629.734 
630.318 
638.96 
633.874 
641.823 
646.115 
649.85 
650.764 
655.945 
657.241 
660.501 
665.576 
675.41 
672.244 
676.778 
679.082 
682.963 
687.23 
691.336 
696.292 
701.024 
706.041 
709.059 
712.413 
718.582 
