ITEM: TIMESTEP
65000
ITEM: NUMBER OF CELLS
100
ITEM: BOX BOUNDS ss pp pp
0 0.001
0 1e-05
-0.5 0.5
ITEM: CELLS f_temp1[*] 
347.878 
355.841 
361.72 
367.129 
372.905 
376.6 
381.453 
386.003 
392.43 
396.835 
401.464 
405.379 
409.358 
413.655 
417.987 
423.693 
427.621 
431.329 
435.104 
438.999 
442.305 
447.208 
450.616 
454.527 
457.863 
462.608 
465.454 
466.976 
471.154 
474.944 
480.079 
484.286 
488.784 
492.497 
495.08 
498.617 
502.129 
506.048 
508.725 
513.413 
516.124 
519.479 
523.839 
526.615 
529.663 
534.007 
535.634 
539.246 
541.682 
543.152 
547.197 
551.688 
555.332 
560.067 
564.39 
567.112 
569.219 
572.877 
576.844 
581.554 
583.07 
586.327 
589.612 
591.355 
594.96 
596.704 
601.308 
607.573 
610.567 
612.922 
613.792 
618.712 
620.38 
623.206 
624.957 
629.575 
632.498 
638.698 
635.476 
642.619 
645.235 
648.539 
653.42 
655.572 
658.881 
665.229 
668.546 
674.018 
670.578 
677.298 
681.771 
687.008 
689.937 
693.004 
697.427 
699.036 
705.722 
706.175 
713.297 
719.675 
