ITEM: TIMESTEP
210000
ITEM: NUMBER OF CELLS
100
ITEM: BOX BOUNDS ss pp pp
0 0.001
0 1e-05
-0.5 0.5
ITEM: CELLS f_temp1[*] 
346.228 
354.051 
360.366 
365.489 
370.908 
376.2 
381.754 
386.399 
390.968 
394.928 
398.789 
404.933 
409.815 
412.763 
416.551 
421.253 
425.998 
429.716 
433.102 
436.722 
441.891 
445.107 
447.67 
451.481 
453.569 
458.656 
462.63 
466.785 
472.071 
474.432 
478.444 
482.421 
486.723 
491.416 
492.944 
497.293 
500.256 
503.058 
507.104 
510.869 
514.262 
517.468 
521.111 
523.902 
529.189 
531.666 
535.976 
538.332 
540.967 
544.776 
548.496 
552.193 
554.998 
558.511 
563.279 
564.904 
568.904 
573.503 
575.902 
579.519 
582.567 
587.47 
587.958 
591.213 
596.642 
600.348 
603.589 
604.92 
610.683 
611.892 
614.49 
618.627 
622.624 
623.427 
627.046 
630.072 
635.966 
642.93 
639.465 
645.17 
646.735 
649.795 
652.658 
657.607 
660.273 
663.959 
667.55 
672.873 
669.381 
675.383 
677.517 
681.506 
686.001 
692.68 
697.964 
700.572 
703.714 
709.28 
715.718 
721.801 
