ITEM: TIMESTEP
7100000
ITEM: NUMBER OF CELLS
1000
ITEM: BOX BOUNDS ss rr pp
0 0.004
0 0.01
-0.5 0.5
ITEM: CELLS f_temp1[*] 
288.312 
308.936 
313.452 
336.669 
318.997 
307.57 
291.279 
318.919 
327.765 
315.85 
313.128 
315.401 
343.803 
336.969 
318.543 
304.221 
304.847 
294.374 
339.937 
338.094 
283.748 
317.887 
342.664 
345.867 
288.873 
314.258 
294.939 
303.644 
319.242 
309.607 
333.029 
313.804 
308.12 
287.696 
311.935 
310.328 
307.266 
318.84 
320.889 
333.063 
299.739 
322.845 
283.51 
281.838 
332.485 
301.897 
340.62 
313.496 
321.103 
306.564 
303.614 
330.003 
307.084 
301.844 
350.191 
334.677 
313.091 
341.744 
334.603 
334.817 
344.882 
343.554 
349.547 
323.839 
330.837 
303.095 
326.096 
312.657 
332.99 
297.252 
335.416 
343.899 
305.908 
298.829 
311.168 
318.227 
328.409 
301.178 
304.408 
320.602 
305.151 
311.673 
330.713 
289.969 
300.458 
317.291 
331.324 
333.455 
317.205 
335.359 
315.181 
335.274 
374.001 
338.828 
335.044 
326.959 
335.777 
310.037 
334.386 
352.182 
383.016 
312.637 
364.196 
324.175 
331.959 
336.546 
329.256 
278.763 
275.475 
320.999 
291.679 
319.042 
335.274 
333.407 
347.733 
313.985 
340.672 
320.968 
328.272 
320.625 
330.977 
346.896 
329.464 
365.207 
350.267 
330.907 
343.383 
366.663 
336.28 
372.885 
362.129 
322.035 
365.327 
354.248 
369.203 
361.948 
349.828 
346.892 
327.782 
336.695 
363.823 
347.593 
361.457 
326.999 
380.021 
318.336 
335.818 
347.428 
360.38 
343.451 
344.374 
356.912 
345.104 
383.777 
372.649 
362.72 
319.876 
377.742 
388.444 
342.091 
347.248 
309.079 
349.164 
332.99 
336.413 
316.084 
353.6 
389.682 
360.871 
345.289 
319.955 
351.169 
355.378 
382.684 
375.651 
333.882 
327.086 
357.794 
354.56 
349.812 
345.356 
393.734 
332.737 
347.715 
353.151 
365.377 
360.247 
335.721 
356.827 
351.524 
319.742 
326.836 
361.89 
405.624 
373.385 
344.711 
360.024 
395.464 
367.561 
386.047 
341.984 
396.742 
352.393 
386.637 
339.591 
362.077 
398.188 
326.518 
372.864 
364.521 
345.419 
375.71 
331.106 
334.419 
391.992 
358.356 
343.932 
342.666 
323.73 
353.409 
346.671 
372.293 
385.624 
331.953 
341.816 
366.192 
344.422 
305.14 
355.233 
365.759 
347.209 
317.02 
325.627 
341.465 
332.001 
352.578 
351.651 
393.919 
378.308 
387.869 
365.18 
326.442 
395.973 
354.144 
410.304 
363.334 
345.431 
388.786 
351.275 
335.817 
364.835 
351.398 
401.704 
339.926 
352.344 
337.053 
352.462 
332.837 
372.08 
358.716 
385.672 
353.376 
377.654 
318.076 
358.972 
374.8 
345.136 
296.39 
347.005 
334.228 
338.754 
357.476 
377.475 
322.727 
375.304 
385.544 
371.908 
345.572 
369.156 
377.481 
339.363 
349.491 
383.151 
384.31 
353.021 
348.848 
382.294 
371.429 
322.749 
412.041 
314.053 
366.667 
355.448 
338.422 
429.897 
367.265 
402.28 
422.675 
383.183 
393.868 
378.43 
448.677 
441.208 
431.114 
447.326 
364.991 
378.361 
365.938 
346.542 
355.439 
370.34 
333.576 
335.522 
404.057 
359.143 
374.505 
375.501 
411.884 
342.822 
404.635 
406.869 
393.03 
456.238 
408.82 
423.002 
464.968 
405.068 
416.98 
386.685 
382.553 
398.995 
389.381 
401.997 
406.726 
390.848 
381.637 
411.167 
411.118 
377.164 
419.443 
381.051 
371.416 
378.255 
400.66 
381.099 
390.313 
369.259 
326.896 
390.848 
375.265 
349.078 
423.437 
372.875 
413.934 
385.567 
351.852 
432.446 
403.275 
430.733 
420.961 
409.791 
386.562 
404.843 
379.485 
425.577 
422.661 
370.572 
405.997 
359.793 
355.525 
390.991 
368.521 
392.236 
394.815 
373.965 
406.797 
372.169 
374.369 
392.205 
361.548 
352.604 
446.976 
377.285 
373.869 
345.014 
357.539 
366.023 
405.277 
416.667 
398.915 
410.741 
381.354 
402.336 
414.682 
450.659 
384.855 
440.364 
415.191 
357.092 
356.053 
376.017 
414.236 
385 
407.446 
445.89 
374.658 
412.97 
408.621 
399.881 
436.011 
367.508 
410.55 
384.437 
419.27 
418.49 
402.284 
422.302 
386.405 
425.186 
425.377 
395.388 
410.448 
411.708 
419.895 
401.749 
404.896 
439.078 
365.902 
388.61 
409.018 
386.012 
393.549 
354.403 
350.503 
338.838 
359.504 
386.866 
358.929 
390.967 
426.558 
424.82 
402.934 
401.7 
370.187 
330.879 
347.975 
406.174 
422.208 
423.029 
371.574 
378.818 
406.527 
407.934 
377.86 
383.784 
404.712 
350.499 
403.598 
404.854 
388.843 
403.498 
398.723 
436.893 
404.425 
406.321 
410.922 
393.297 
373.215 
387.746 
428.078 
477.766 
460.304 
410.899 
388.019 
438.069 
370.382 
370.519 
415.289 
452.834 
360.687 
468.78 
398.816 
427.515 
420.582 
394.859 
378.975 
381.233 
393.585 
408.593 
369.585 
405.35 
411.684 
425.796 
396.46 
330.181 
401.552 
404.687 
393.99 
350.067 
443.612 
425.17 
420.54 
417.336 
447.177 
388.452 
383.172 
417.322 
387.924 
471.46 
417.651 
454.855 
403.705 
436.528 
441.872 
418.686 
443.852 
468.014 
420.645 
451.476 
428.589 
405.277 
422.611 
419.172 
404.428 
440.957 
390.509 
465.664 
357.528 
411.678 
368.676 
464.902 
413.965 
401.225 
428.953 
395.808 
434.842 
452.062 
370.216 
388.239 
412.167 
409.025 
374.191 
432.28 
389.298 
441.11 
395.725 
395.757 
479.983 
400.629 
400.843 
420.926 
389.582 
418.777 
423.226 
377.064 
403.369 
349.902 
397.576 
418.182 
389.206 
390.605 
403.626 
368.74 
371.593 
406.495 
446.708 
420.376 
412.202 
420.781 
456.797 
481.348 
381.071 
464.445 
438.522 
451.875 
444.64 
430.884 
385.558 
400.429 
511.678 
438.047 
512.596 
413.819 
445.481 
458.895 
467.489 
486.507 
423.279 
435.014 
418.922 
388.158 
464.85 
377.927 
401.664 
427.241 
452.584 
469.223 
439.178 
448.359 
439.13 
456.959 
367.869 
501.367 
395.806 
446.404 
434.772 
412.148 
399.053 
427.85 
396.779 
423.951 
432.852 
427.634 
408.138 
432.854 
424.411 
409.876 
424.588 
413.616 
407.255 
428.444 
416.421 
384.013 
457.015 
403.458 
402.855 
432.327 
415.107 
376.853 
451.777 
383.472 
392.058 
408.277 
380.115 
467.165 
371.788 
398.164 
394.68 
359.582 
426.474 
387.966 
376.331 
392.342 
384.663 
378.279 
381.229 
400.977 
402.658 
436.388 
397.353 
384.626 
425.469 
448.242 
412.818 
403.345 
414.878 
418.109 
408.867 
458.032 
410.347 
436.178 
427.269 
415.493 
441.257 
417.044 
467.617 
426.862 
431.793 
437.232 
386.355 
434.605 
444.968 
442.512 
458.563 
432.247 
463.83 
418.571 
403.741 
386.363 
463.518 
440.038 
424.847 
434.682 
386.438 
438.26 
424.504 
440.199 
428.892 
422.474 
502.632 
407.82 
478.502 
438.606 
457.892 
438.38 
442.704 
482.67 
503.279 
436.165 
436.848 
439.096 
413.595 
435.549 
416.375 
512.659 
487.598 
457.166 
499.326 
492.381 
534.762 
508.405 
476.768 
478.273 
471.973 
525.624 
508.968 
489.205 
481.414 
542.655 
481.951 
509.31 
504.669 
492.025 
442.823 
450.434 
438.112 
422.771 
465.995 
470.993 
464.607 
479.698 
447.881 
458.406 
492.645 
516.378 
425.377 
535.969 
464.776 
502.649 
416.831 
507.58 
491.594 
478.84 
410.544 
476.768 
503.544 
414.246 
484.73 
419.875 
511.849 
453.532 
470.983 
485.246 
462.474 
488.552 
458.409 
467.786 
413.63 
513.378 
521.695 
525.149 
448.988 
482.955 
453.513 
469.234 
465.378 
453.478 
519.463 
510.091 
423.904 
457.25 
444.93 
413.988 
432.686 
479.946 
389.97 
478.361 
478.527 
450.207 
446.435 
420.278 
464.854 
438.063 
407.705 
438.87 
451.646 
437.766 
429.588 
382.832 
458.411 
429.479 
471.89 
448.523 
441.305 
418.47 
458.053 
434.423 
430.572 
472.649 
492.129 
417.403 
452.835 
443.802 
462.978 
421.67 
417.688 
483.313 
427.908 
479.946 
458.169 
420.097 
492.494 
471.041 
436.41 
443.865 
454.19 
460.864 
497.714 
386.786 
488.008 
485.092 
448.339 
467.327 
441.962 
422.006 
441.433 
482.253 
411.511 
502.991 
425.685 
503.983 
450.867 
478.267 
473.558 
458.217 
446.822 
445.47 
480.825 
462.66 
471.276 
505.947 
443.124 
486.773 
484.85 
414.852 
474.22 
438.071 
507.053 
437.166 
430.568 
442.777 
436.637 
486.041 
466.047 
466.31 
423.168 
450.331 
533.289 
482.256 
491.998 
511.689 
546.826 
487.243 
472.877 
506.995 
535.34 
594.493 
571.612 
597.114 
441.409 
474.796 
493.655 
520.589 
525.822 
471.267 
463.208 
473.178 
500.561 
470.02 
502.748 
484.016 
445.026 
453.868 
502.532 
495.343 
591.233 
499.637 
527.204 
519.305 
475.891 
484.942 
560.408 
432.215 
552.382 
461.589 
560.687 
520.691 
498.886 
489.505 
471.879 
564.814 
510.18 
469.173 
422.095 
497.252 
459.165 
566.453 
501.764 
517.108 
468.658 
445.762 
486.572 
465.733 
478.023 
464.122 
468.112 
415.824 
501.491 
464.563 
507.51 
486.773 
473.125 
440.551 
489.598 
528.712 
514.985 
506.473 
417.207 
501.105 
466.174 
482.481 
443.063 
496.137 
464.96 
509.983 
463.48 
444.318 
484.077 
458.801 
517.503 
472.75 
492.687 
537.971 
472.1 
503.143 
423.145 
472.964 
462.653 
539.278 
458.222 
521.589 
452.119 
459.059 
458.232 
477.123 
521.427 
528.313 
474.18 
508.848 
528.511 
488.284 
505.082 
499.657 
480.033 
449.361 
486.382 
433.077 
484.253 
489.4 
422.361 
481.971 
468.137 
499.4 
512.25 
509.778 
434.805 
488.192 
478.577 
472.868 
468.494 
541.094 
524.21 
534.894 
474.413 
530.212 
510.692 
572.761 
490.428 
533.436 
452.771 
476.076 
515.035 
452.337 
457.221 
481.911 
446.183 
474.401 
468.955 
498.631 
492.019 
