ITEM: TIMESTEP
4900000
ITEM: NUMBER OF CELLS
1000
ITEM: BOX BOUNDS ss rr pp
0 0.004
0 0.01
-0.5 0.5
ITEM: CELLS f_temp1[*] 
344.427 
319.431 
325.627 
306.235 
304.672 
297.374 
308.888 
285.416 
318.38 
289.937 
308.819 
298.767 
281.246 
319.126 
287.393 
282.312 
336.367 
312.131 
299.574 
322.656 
278.562 
297.864 
302.606 
317.102 
345.825 
306.489 
328.115 
313.18 
322.271 
311.912 
304 
292.579 
306.022 
275.306 
335.443 
335.977 
326.014 
305.972 
314.535 
316.446 
293.645 
287.361 
293.33 
301.38 
317.456 
313.51 
271.59 
297.268 
338.719 
353.763 
284.82 
293.363 
351.291 
292.678 
318.284 
292.304 
312.761 
311.701 
293.476 
306.338 
282.208 
301.834 
316.013 
250.961 
286.816 
264.282 
300.946 
316.514 
316.329 
364.924 
285.371 
303.832 
295.555 
309.292 
284.173 
272.844 
294.465 
323.555 
308.741 
317.691 
328.892 
295.667 
308.307 
322.082 
299.517 
277.427 
282.531 
306.215 
327.841 
322.653 
327.784 
317.547 
309.399 
320.636 
322.937 
334.052 
309.516 
331.33 
310.973 
330.337 
303.306 
306.47 
328.859 
341.748 
308.696 
353.271 
346.663 
320.907 
327.228 
309.369 
345.387 
357.198 
324.53 
342.199 
332.029 
331.636 
354.73 
321.575 
343.602 
380.252 
361.684 
343.879 
352.174 
333.186 
340.524 
325.98 
306.87 
336.879 
351.068 
312.791 
324.698 
360.688 
312.094 
353.671 
358.032 
334.787 
376.094 
327.127 
348.868 
345.028 
326.894 
330.932 
335.732 
338.876 
323.033 
346.476 
325.61 
331.675 
372.003 
360.826 
365.674 
364.014 
311.44 
348.854 
337.545 
311.965 
327.528 
315.508 
316.425 
333.418 
346.484 
333.504 
311.735 
319.012 
296.687 
335.451 
365.282 
330.801 
328.594 
338.675 
344.737 
348.966 
361.905 
324.281 
367.604 
339.304 
322.146 
347.221 
336.086 
338.362 
346.165 
361.352 
349.823 
353.816 
331.864 
328.345 
359.107 
333.396 
403.333 
345.363 
330.076 
317.993 
320.313 
359.831 
323.107 
342.554 
345.183 
361.686 
344.727 
331.07 
315.429 
368.797 
346.617 
353.366 
395.35 
398.942 
360.106 
381.251 
367.524 
421.088 
404.155 
338.181 
369.428 
395.035 
368.47 
379.488 
348.903 
389.796 
361.382 
383.734 
361.812 
361.265 
378.834 
345.148 
367.628 
384.803 
363.995 
420.005 
372.299 
362.447 
451.975 
424.133 
407.257 
386.679 
372.411 
392.782 
381.538 
357.989 
345.452 
361.16 
377.569 
360.093 
388.536 
366.173 
354.741 
416.693 
379.069 
366.481 
354.169 
404.478 
371.797 
349.541 
342.433 
392.739 
364.105 
327.128 
330.476 
337.07 
372.435 
394.408 
449.981 
363.639 
360.625 
352.447 
416.949 
434.654 
367.445 
418.405 
385.741 
377.415 
365.391 
380.828 
355.093 
345.169 
347.822 
356 
345.392 
391.454 
305.095 
383.229 
336.54 
434.544 
345.791 
363.792 
372.293 
313.979 
363.849 
378.738 
328.683 
367.685 
389.365 
314.186 
352.219 
353.541 
368.453 
349.758 
350.319 
382.028 
366.163 
338.957 
355.551 
346.305 
373.385 
375.266 
353.481 
348.48 
349.81 
360.592 
338.699 
376.745 
379.764 
407.487 
320.057 
319.064 
386.787 
389.998 
380.439 
347.707 
362.581 
432.834 
358.314 
353.549 
366.613 
335.796 
400.701 
380.767 
383.301 
335.015 
387.143 
424.596 
354.73 
435.377 
354.357 
393.533 
385.403 
385.781 
398.204 
364.25 
373.215 
396.968 
347.025 
380.336 
350.689 
369.555 
385.452 
362.893 
407.501 
388.704 
405.367 
394.05 
397.969 
340.298 
417.434 
384.165 
386.157 
340.51 
364.345 
367.201 
327.96 
362.705 
355.752 
347.641 
382.216 
353.147 
351.174 
357.302 
355.21 
367.566 
321.007 
350.466 
403.342 
388.21 
345.944 
368.978 
385.252 
371.076 
407.97 
358.58 
345.628 
362.807 
406.757 
407.457 
348.702 
419.407 
413.647 
362.498 
392.923 
426.409 
345.199 
361.396 
382.116 
408.016 
377.11 
452.858 
378.957 
430.227 
395.859 
365.228 
403.382 
420.394 
408.181 
391.996 
411.639 
367.535 
442.14 
353.581 
354.164 
392.52 
403.594 
405.45 
364.048 
400.649 
377.128 
382.039 
384.687 
415.828 
357.829 
375.776 
383.553 
330.25 
381.92 
363.168 
374.111 
363.903 
380.226 
363.577 
379.055 
360.895 
365.706 
363.828 
428.535 
387.166 
457.921 
357.436 
410.047 
376.736 
405.344 
433.335 
424.526 
421.988 
411.887 
406.679 
388.803 
380.065 
437.29 
387.536 
392.583 
374.362 
350.994 
394.558 
379.9 
454.258 
350.508 
392.183 
402.061 
398.279 
398.488 
399.117 
360.558 
372.155 
424.292 
376.82 
405.831 
371.279 
375.545 
356.907 
365.2 
357.876 
375.709 
409.383 
353.405 
372.376 
430.284 
433.305 
403 
385.396 
397.32 
390.419 
437.609 
388.292 
405.69 
497.401 
370.231 
477.336 
450.554 
407.676 
443.332 
434.848 
399.408 
393.149 
383.989 
406.724 
397.663 
412.56 
441.8 
424.486 
452.019 
440.976 
433.859 
403.69 
426.107 
441.659 
492.937 
440.408 
425.176 
397.688 
389.884 
424.065 
417.413 
381.864 
363.163 
391.55 
342.157 
414.879 
395.155 
377.329 
379.444 
439.291 
428.243 
415.97 
382.621 
365.105 
443.601 
371.414 
410.03 
416.016 
390.224 
385.314 
398.161 
405.16 
402.792 
396.678 
434.287 
407.648 
399.098 
393.041 
382.828 
415.294 
432.403 
390.85 
374.027 
435.2 
401.758 
406.688 
398.617 
393.473 
407.412 
428.936 
450.845 
416.229 
410.687 
447.076 
399.024 
399.362 
427.186 
356.664 
411.573 
364.099 
371.428 
381.73 
352.298 
401.313 
379.806 
405.815 
373.796 
387.696 
378.226 
388.066 
389.24 
418.573 
415.769 
411.793 
384.517 
453.133 
395.426 
458.185 
408.039 
419.626 
383.473 
351.014 
405.212 
353.513 
402.641 
369.263 
496.47 
413.733 
351.059 
336.264 
397.151 
397.6 
432.665 
412.924 
448.341 
404.175 
456.323 
382.429 
446.306 
446.181 
414.911 
437.557 
409.214 
440.73 
375.505 
397.869 
411.605 
416.915 
445.16 
442.249 
465.617 
374.441 
395.911 
397.225 
469.25 
423.056 
475.293 
389.247 
456.022 
485.218 
502.79 
382.561 
406.627 
427.324 
451.629 
464.012 
442.681 
465.888 
439.853 
395.073 
419.523 
466.177 
410.272 
420.2 
437.395 
435.577 
443.475 
468.809 
427.233 
397.255 
418.425 
416.012 
424.218 
448.542 
453.533 
369.75 
437.267 
469.971 
474.608 
407.003 
412.631 
474.904 
407.71 
493.021 
460.438 
455.492 
435.019 
468.152 
414.381 
441.124 
376.832 
441.99 
441.387 
464.818 
422.88 
482.824 
477.258 
458.822 
467.066 
439.861 
466.835 
466.52 
456.525 
479.338 
394.555 
438.879 
465.326 
420.358 
459.588 
484.498 
485.616 
420.45 
428.695 
414.181 
524.548 
430.901 
425.792 
455.871 
431.958 
423.769 
483.971 
475.539 
445.556 
471.641 
445.344 
468.662 
510.755 
432.425 
420.207 
390.196 
403.391 
449.128 
443.099 
431.079 
426.299 
384.837 
415.28 
435.612 
426.915 
410.715 
397.61 
457.851 
467.609 
421.531 
437.642 
385.149 
461.229 
491.773 
470.484 
491.382 
440.328 
442.504 
459.726 
475.194 
446.728 
420.243 
429.164 
425.081 
446.215 
369.781 
441.577 
417.202 
359.294 
446.543 
390.345 
385.602 
393.863 
422.91 
468.009 
461.878 
416.467 
444.476 
426.706 
402.252 
451.326 
394.229 
461.012 
417.52 
425.878 
470.32 
408.54 
445.83 
442.131 
431.751 
439.251 
448.459 
437.688 
502.877 
499.497 
444.505 
480.161 
523.549 
462.473 
452.887 
400.991 
478.666 
488.323 
473.688 
482.913 
449.582 
449.922 
475.313 
515.578 
476.287 
489.539 
457.01 
482.645 
386.961 
442.549 
449.984 
404.077 
584.716 
500.527 
447.478 
460.066 
555.401 
517.918 
459.917 
447.368 
427.967 
462.65 
444.156 
481.057 
490.243 
464.397 
452.052 
549.871 
435.852 
477.716 
472.65 
494.685 
461.789 
446.229 
423.262 
440.886 
460.555 
500.367 
373.887 
502.118 
442.375 
471.506 
520.915 
472.511 
414.183 
456.996 
449.948 
465.372 
450.679 
464.941 
419.54 
436.233 
464.317 
428.311 
491.729 
454.191 
420.795 
471.952 
460.101 
406.785 
447.587 
496.661 
440.775 
465.068 
469.149 
406.587 
493.286 
405.342 
453.352 
432.996 
543.984 
388.392 
437.425 
470.047 
438.535 
473.399 
464.285 
476.412 
456.184 
440.311 
486.029 
408.285 
466.546 
434.592 
521.167 
464.105 
461.506 
489.195 
434.121 
422.613 
419.637 
437.859 
450.923 
470.634 
511.063 
476.108 
470.985 
423.327 
433.179 
449.406 
494.67 
440.841 
476.512 
484.331 
471.219 
514.721 
502.808 
480.702 
444.118 
467.279 
534.132 
508.609 
482.557 
454.865 
484.005 
531.565 
515.794 
520.237 
514.26 
470.33 
482.35 
462.979 
437.248 
434.494 
469.586 
432.604 
452.538 
462.559 
531.843 
472.43 
452.925 
480.822 
510.456 
444.923 
520.958 
476.166 
426.802 
478.866 
472.828 
505.067 
457.159 
520.626 
453.116 
520.878 
521.031 
417.865 
599.195 
516.69 
425.784 
490.929 
501.093 
436.832 
490.434 
450.318 
474.333 
472.331 
543.644 
465.62 
498.816 
494.843 
538.124 
502.914 
557.265 
495.592 
492.756 
473.708 
475.402 
515.739 
516.634 
453.875 
412.03 
468.742 
454.745 
450.515 
513.144 
545.376 
485.851 
527.681 
558.389 
461.5 
466.946 
538.595 
507.616 
478.551 
477.679 
539.232 
565.323 
476.473 
521.02 
515.919 
493.815 
572.306 
519.272 
468.446 
473.1 
446.963 
597.767 
518.482 
541.004 
520.056 
517.643 
443.812 
507.992 
513.777 
503.835 
427.212 
541.115 
455.553 
480.875 
475.493 
509.955 
517.095 
425.478 
492.021 
489.487 
515.241 
551.633 
473.732 
516.526 
522.53 
506.694 
577.409 
477.276 
472.329 
495.133 
463.001 
519.089 
545.423 
430.066 
472.666 
503.748 
556.427 
484.616 
