ITEM: TIMESTEP
2300000
ITEM: NUMBER OF CELLS
1000
ITEM: BOX BOUNDS ss rr pp
0 0.004
0 0.01
-0.5 0.5
ITEM: CELLS f_temp1[*] 
320.804 
300.58 
306.513 
305.688 
331.409 
319.994 
291.956 
285.985 
329.314 
319.196 
319.22 
310.747 
305.97 
334.231 
317.567 
300.477 
320.337 
286.835 
279.146 
265.342 
292.552 
345.681 
312.945 
316.267 
335.85 
330.076 
324.533 
308.08 
312.396 
294.555 
332.413 
333.706 
289.825 
293.818 
308.726 
331.473 
295.561 
282.852 
283.827 
301.193 
332.238 
292.223 
281.332 
295.424 
309.324 
344.017 
328.158 
311.96 
296.47 
310.89 
336.583 
328.578 
322.149 
349.29 
324.884 
331.451 
345.872 
346.101 
301.231 
312.631 
334.233 
305.512 
317.289 
324.189 
306.593 
299.109 
296.074 
312.628 
308.199 
306.487 
297.275 
304.025 
302.265 
338.782 
329.46 
328.39 
333.356 
325.324 
332.257 
325.734 
324.06 
333.799 
358.325 
339.459 
351.457 
311.552 
343.186 
352.695 
342.227 
319.338 
317.185 
369.398 
310.214 
339.459 
311.002 
350.871 
327.475 
315.405 
359.044 
306.439 
347.156 
346.747 
342.799 
361.033 
329.417 
359.014 
314.217 
340.781 
332.572 
326.769 
341.072 
336.449 
337.44 
356.443 
390.113 
337.726 
350.433 
317.443 
332.222 
350.94 
339.095 
319.318 
327.511 
355.552 
337.996 
307.94 
350.467 
363.752 
360.505 
318.689 
321.705 
319.005 
347.847 
397.668 
355.811 
346.821 
302.474 
315.504 
340.248 
341.07 
350.863 
364.866 
338.314 
324.49 
324.906 
369.095 
349.342 
350.742 
365.774 
353.426 
323.308 
356.682 
322.541 
378.077 
364.206 
331.938 
304.992 
377.131 
333.089 
324.919 
377.486 
361.476 
355.264 
326.96 
318.117 
365.832 
373.653 
357.83 
400.784 
346.75 
414.27 
350.139 
356.982 
334.997 
386.141 
331.965 
307.517 
316.662 
342.882 
347.397 
385.685 
352.128 
380.792 
325.812 
331.57 
344.005 
370.511 
312.66 
358.435 
337.425 
330.496 
327.544 
347.714 
324.318 
323.854 
331.886 
316.72 
298.356 
338.099 
350.981 
340.58 
339.275 
333.058 
300.398 
356.023 
327.453 
379.903 
333.825 
374.387 
345.693 
373.062 
325.602 
380.278 
312.182 
327.778 
336.311 
349.527 
346.107 
362.053 
311.152 
342.694 
352.607 
367.113 
363.491 
341.227 
337.31 
373.792 
423.708 
368.07 
301.588 
346.75 
367.268 
356.504 
342.854 
374.005 
352.614 
375.096 
384.205 
358.869 
370.793 
370.84 
358.482 
361.423 
339.297 
378.943 
351.129 
399.829 
345.972 
428.853 
405.602 
376.784 
375.77 
360.804 
368.185 
330.493 
336.86 
347.065 
342.165 
371.308 
377.105 
352.427 
406.839 
397.723 
376.567 
391.394 
424.292 
410.592 
390.768 
356.378 
409.739 
391.626 
356.748 
349.44 
374.712 
365.992 
336.247 
367.869 
368.926 
342.901 
359.14 
338.84 
325.973 
344.717 
367.274 
379.727 
358.419 
391.461 
360.263 
430.874 
366.645 
376.11 
341.07 
355.931 
373.022 
360.852 
377.221 
361.581 
337.693 
352.402 
355.438 
404.74 
367.015 
381.121 
377.701 
407.244 
394.357 
340.918 
354.106 
359.831 
359.258 
361.771 
386.355 
401.869 
327.572 
395.542 
352.207 
350.282 
310.883 
404.379 
380.756 
389.986 
382.922 
354.11 
368.703 
365.068 
349.757 
405.181 
367.215 
351.266 
360.321 
348.57 
421.639 
393.046 
399.135 
354.674 
359.252 
377.641 
370.547 
413.657 
394.647 
375.889 
360.148 
351.982 
374.639 
404.934 
334.958 
402.542 
363.581 
410.243 
361.224 
343.153 
359.538 
338.723 
308.401 
328.857 
405.522 
358.539 
382.942 
362.341 
366.511 
366.879 
391.473 
365.39 
419.195 
389.81 
377.313 
362.499 
319.13 
430.295 
349.195 
344.358 
381.648 
339.181 
371.216 
429.273 
391.751 
368.964 
439.802 
395.168 
353.233 
401.312 
415.688 
369.959 
382.524 
363.661 
363.697 
389.377 
350.011 
410.698 
387.161 
333.943 
403.037 
382.302 
360.665 
373.538 
402.802 
373.515 
386.18 
355.757 
376.184 
369.497 
370.902 
392.212 
388.808 
368.668 
413.284 
358.713 
422.994 
378.733 
375.408 
374.914 
390.879 
413.089 
357.815 
381.358 
414.445 
404.789 
373.678 
374.854 
451.721 
396.595 
362.326 
474.052 
385.265 
413.777 
391.17 
443.89 
393.583 
368.814 
453.975 
436.192 
426.473 
434.029 
379.282 
402.838 
390.631 
415.823 
428.902 
412.76 
395.141 
414.267 
371.079 
391.821 
445.769 
388.262 
463.744 
406.062 
389.434 
422.105 
380.676 
438.601 
374.589 
420.85 
481.63 
455.661 
442.34 
437.025 
440.946 
467.589 
404.771 
480.018 
392.595 
444.89 
431.164 
413.362 
439.136 
407.917 
444.062 
404.556 
427.536 
437.933 
414.481 
422.633 
427.396 
402.169 
426.439 
417.75 
450.083 
373.498 
371.16 
391.066 
406.767 
431.355 
386.122 
446.287 
513.929 
413.46 
445.813 
409.715 
410.117 
375.137 
428.571 
443.219 
388.714 
415.55 
427.411 
408.784 
447.244 
351.81 
392.812 
421.93 
369.529 
414.977 
432.252 
435.768 
407.582 
416.982 
426.482 
409.469 
426.305 
423.318 
434.562 
432.191 
392.765 
405.311 
427.665 
379.17 
433.514 
364.171 
434.807 
414.345 
367.492 
385.261 
427.384 
385.474 
394.16 
408.525 
446.637 
393.169 
407.642 
441.305 
387.059 
374.182 
411.707 
387.189 
393.396 
406.33 
394.947 
390.502 
420.959 
442.131 
440.527 
427.227 
445.557 
402.222 
424.592 
382.894 
389.819 
409.335 
414.845 
446.147 
425.125 
367.472 
372.373 
401.658 
449.05 
426.813 
441.205 
408.789 
409.086 
380.32 
448.76 
426.49 
417.317 
407.086 
445.912 
352.9 
439.646 
434.061 
397.344 
401.718 
467.719 
412.041 
457.663 
408.909 
456.578 
451.387 
395.662 
438.717 
457.659 
411.461 
411.552 
433.957 
442.239 
465.429 
403.521 
477.35 
387.451 
461.627 
482.869 
448.392 
398.295 
451.216 
386.588 
429.394 
392.086 
399.211 
397.957 
366.86 
387.768 
419.826 
460.66 
420.009 
389.068 
416.275 
393.869 
420.879 
393.135 
444.01 
440.886 
370.684 
477.61 
412.5 
455.284 
417.99 
407.044 
419.07 
370.179 
419.055 
414.247 
422.714 
422.837 
432.682 
393.025 
402.954 
445.436 
492.541 
449.037 
436.128 
440.517 
475.356 
446.542 
441.695 
387.307 
371.369 
398.352 
455.422 
448.213 
465.437 
448.574 
520.687 
435.581 
445.785 
481.985 
458.208 
505.339 
421.033 
515.585 
521.238 
428.237 
447.72 
426.57 
380.442 
464.523 
430.474 
441.985 
411.319 
440.174 
439.648 
417.663 
461.059 
442.232 
443.464 
415.436 
449.622 
405.219 
446.945 
431.917 
470.688 
429.686 
507.312 
447.008 
504.988 
413.569 
447.875 
479.217 
404.405 
429.812 
484.334 
461.812 
424.457 
474.045 
469.494 
386.026 
463.687 
405.25 
446.385 
439.996 
513.091 
456.571 
456.161 
510.312 
467.5 
474.794 
455.814 
499.776 
478.068 
422.016 
439.032 
528.704 
381.202 
487.564 
443.587 
459.768 
430.72 
448.159 
428.407 
454.531 
397.076 
500.023 
454.241 
471.3 
419.067 
436.981 
477.93 
423.516 
404.637 
456.991 
413.716 
427.195 
483.848 
457.23 
452.244 
398.887 
442.285 
489.14 
396.491 
488.738 
446.014 
389.146 
383.675 
423.154 
381.092 
423.079 
455.138 
405.249 
401.596 
390.771 
480.074 
430.336 
409.746 
422.028 
413.023 
443.243 
419.353 
410.25 
372.49 
515.657 
413.981 
503.212 
439.283 
407.725 
467.077 
443.381 
422.523 
421.71 
371.401 
446.844 
368.857 
395.587 
440.218 
452.358 
419.774 
460.043 
399.955 
467.507 
422.56 
480.367 
495.429 
459.885 
471.107 
446.777 
444 
436.086 
467.935 
426.63 
442.809 
447.771 
370.153 
478.251 
491.061 
455.696 
464.058 
474.373 
451.011 
448.13 
472.44 
415.89 
473.541 
425.821 
443.582 
419.314 
477.658 
524.687 
456.158 
464.71 
462.301 
460.177 
478.966 
500.865 
475.053 
425.682 
395.475 
497.008 
459.172 
507.345 
455.981 
461.753 
481.689 
449.088 
415.569 
469.478 
460.437 
445.803 
435.385 
463.977 
428.557 
502.665 
459.541 
455.682 
483.174 
417.778 
495.066 
455.438 
443.993 
443.942 
431.273 
450.651 
437.356 
467.266 
412.609 
471.552 
413.9 
447.38 
433.371 
409.418 
466.164 
432.226 
477.475 
484.112 
471.565 
429.997 
485.151 
491.369 
431.245 
491.987 
431.029 
521.136 
543.226 
447.349 
461.812 
448.243 
451.824 
422.616 
545.942 
409.712 
560.466 
426.64 
470.404 
493.912 
428.995 
472.492 
546.92 
578.178 
470.415 
500.758 
525.098 
496.014 
557.909 
468.6 
513.703 
450.348 
527.973 
474.069 
527.967 
435.958 
440.103 
498.924 
532.954 
521.386 
479.349 
470.814 
449.959 
508.637 
497.682 
430.248 
528.467 
519.163 
458.25 
499.524 
483.834 
547.259 
550.506 
448.18 
501.992 
469.218 
514.809 
470.908 
463.553 
519.102 
490.751 
436.5 
472.59 
545.065 
454.16 
539.183 
495.191 
554.018 
482.467 
414.673 
469.823 
511.677 
485.316 
489.594 
509.681 
440.894 
492.549 
497.871 
513.909 
471.144 
456.198 
452.918 
457.832 
455.264 
455.503 
510.01 
385.4 
451.017 
448.565 
505.102 
492.712 
524.463 
460.282 
462.161 
470.072 
464.205 
478.254 
459.971 
509.929 
476.624 
424.505 
465.902 
422.907 
453.945 
457.01 
513.106 
472.989 
473.326 
544.428 
493.085 
511.246 
529.747 
452.41 
495.756 
449.67 
490.585 
503 
428.949 
453.874 
615.95 
462.927 
530.473 
504.476 
505.166 
488.88 
490.17 
564.765 
513.892 
526.799 
485.303 
464.737 
535.997 
533.189 
479.811 
481.981 
550.721 
520.665 
506.823 
483.356 
485.19 
508.584 
543.202 
477.678 
444.081 
553.43 
505.478 
521.317 
479.235 
481.865 
466.301 
482.332 
486.743 
488.492 
500.768 
447.667 
524.909 
531.027 
476.598 
531.778 
502.712 
