ITEM: TIMESTEP
6000000
ITEM: NUMBER OF CELLS
1000
ITEM: BOX BOUNDS ss rr pp
0 0.004
0 0.01
-0.5 0.5
ITEM: CELLS f_temp1[*] 
318.03 
305.813 
279.884 
291.018 
332.538 
289.362 
321.417 
335.534 
322.324 
340.364 
298.174 
300.829 
339.008 
338.397 
332.35 
312.758 
311.192 
339.616 
288.42 
312.389 
323.036 
330.198 
290.931 
302.638 
312.784 
298.704 
321.301 
338.167 
291.467 
302.471 
343.901 
319.338 
317.968 
329.965 
316.505 
308.197 
323.796 
256.698 
270.895 
307.229 
269.234 
313.501 
307.716 
307.393 
305.645 
329.35 
304.86 
336.998 
276.878 
340.022 
295.541 
306.759 
292.073 
318.805 
340.084 
339.47 
329.351 
363.782 
299.759 
352.924 
320.13 
317.076 
341.479 
366.957 
328.214 
348.542 
317.98 
332.621 
308.71 
324.403 
330.535 
360.706 
355.306 
350.519 
328.729 
326.898 
309.267 
337.591 
317.278 
338.4 
277.544 
319.773 
325.186 
350.419 
337.615 
320.869 
320.953 
327.648 
290.318 
288.51 
324.431 
310.068 
288.875 
296.295 
314.793 
307.233 
325.135 
316.068 
287.342 
315.241 
314.549 
309.204 
342.816 
320.586 
310.487 
320.094 
338.738 
334.308 
321.221 
338.169 
302.024 
315.289 
322.74 
323.745 
370.597 
338.855 
328.141 
337.854 
316.727 
332.989 
286.848 
291.005 
288.683 
326.524 
320.045 
328.748 
280.412 
341.831 
324.416 
334.918 
346.982 
334.063 
375.098 
327.79 
324.729 
354.429 
359.99 
338.96 
322.927 
347.51 
347.997 
320.221 
343.463 
343.295 
334.685 
313.664 
351.26 
298.517 
313.193 
347.548 
317.955 
363.583 
373.559 
323.975 
329.293 
336.254 
341.238 
356.099 
356.601 
357.117 
356.674 
331.696 
330.138 
324.454 
324.306 
327.973 
344.256 
325.716 
326.691 
365.975 
303.826 
321.514 
347.337 
349.204 
346.294 
345.158 
320.368 
300.904 
339.584 
318.941 
341.5 
351.894 
319.304 
350.272 
340.555 
342.332 
337.655 
344.246 
319.942 
345.611 
348.762 
358.181 
333.469 
353.636 
357.945 
325.625 
323.51 
368.735 
376.006 
377.522 
355.214 
376.765 
385.453 
372.404 
350.036 
347.846 
345.474 
340.747 
358.45 
354.533 
331.863 
339.827 
390.472 
358.505 
353.655 
347.463 
360.144 
314.842 
337.769 
353.15 
359.735 
366.743 
410.622 
339.016 
375.45 
353.942 
350.66 
336.654 
334.882 
358.919 
351.104 
352.619 
368.959 
359.427 
340.044 
356.824 
368.586 
313.862 
335.43 
360.746 
341.997 
372.594 
310.66 
350.155 
392.62 
319.035 
310.444 
340.382 
335.28 
338.329 
379.176 
328.486 
372.031 
409.073 
363.306 
354.33 
348.839 
373.469 
319.299 
349.097 
363.626 
355.795 
368.128 
374.038 
357.566 
399.882 
376.678 
377.796 
357.722 
346.053 
377.076 
372.174 
346.9 
380.514 
356.131 
331.722 
343.522 
396.947 
329.208 
345.218 
340.872 
365.663 
335.63 
370.299 
380.137 
354.434 
351.094 
347.609 
420.303 
361.123 
395.721 
358.726 
398.592 
362.748 
362.007 
377.027 
377.042 
373.373 
411.609 
362.334 
353.514 
370.181 
412.832 
383.065 
364.62 
410.119 
381.867 
330.073 
393.461 
397.463 
343.192 
384.622 
401.813 
384.783 
403.968 
389.207 
383.802 
335.555 
390.949 
383.721 
348.412 
409.809 
411.042 
310.625 
393.87 
393.232 
391.827 
371.404 
368.45 
386.802 
358.622 
365.2 
415.873 
373.661 
365.948 
366.789 
375.124 
388.108 
393.742 
367.768 
418.548 
450.654 
372.635 
388.999 
325.393 
404.686 
375.06 
370.556 
387.254 
390.117 
406.607 
376.039 
362.068 
350.397 
393.647 
400.48 
374.887 
355.753 
378.686 
329.92 
388.248 
395.123 
390.203 
352.514 
370.715 
349.391 
422.676 
374.691 
402.434 
377.906 
356.398 
414.837 
372.093 
375.597 
356.547 
363.452 
419.803 
418.342 
340.395 
406.866 
424.467 
421.35 
427.811 
353.873 
383.55 
380.23 
421.722 
406.979 
384.973 
419.691 
468.792 
499.404 
413.734 
443.568 
423.269 
376.056 
408.35 
371.805 
392.173 
356.863 
403.094 
402.095 
405.489 
400.247 
407.04 
437.473 
374.692 
407.084 
365.924 
370.479 
386.946 
357.349 
404.759 
396.684 
391.96 
424.1 
347.03 
412.497 
370.623 
394.437 
400.953 
343.903 
386.263 
413.879 
438.874 
426.637 
374.363 
445.831 
388.705 
406.62 
414 
458.328 
408.189 
424.828 
399.953 
393.131 
397.071 
456.153 
411.262 
470.458 
379.58 
467.253 
427.699 
394.407 
425.286 
431.575 
367.625 
413.229 
388.233 
353.171 
364.348 
407.346 
367.835 
431.583 
421.001 
417.849 
416.631 
371.374 
425.418 
410.939 
382.453 
443.973 
447.965 
453.682 
432.525 
397.844 
460.165 
488.456 
362.425 
411.649 
406.685 
426.979 
456.602 
471.848 
406.293 
423.368 
398.63 
476.157 
420.756 
394.056 
435.367 
407.985 
420.428 
411.544 
425.775 
439.237 
413.425 
405.654 
391.284 
394.587 
437.917 
381.329 
413.46 
423.118 
447.494 
472.461 
407.394 
387.301 
449.623 
398.792 
414.653 
379.442 
391.054 
454.384 
380.718 
412.846 
411.602 
443.904 
400.922 
380.18 
446.075 
443.187 
395.871 
391.953 
411.517 
371.241 
421.497 
370.582 
443.188 
393.595 
408.892 
423.314 
424.293 
434.001 
467.946 
407.992 
448.44 
418.077 
368.686 
459.615 
485.373 
410.274 
377.493 
396.798 
465.855 
420.214 
393.605 
440.03 
396.668 
380.688 
408.636 
391.131 
410.263 
448.434 
373.591 
419.269 
378.118 
417.577 
390.56 
428.888 
400.778 
449.841 
462.595 
392.033 
442.458 
428.417 
439.162 
441.96 
445.312 
404.005 
404.962 
496.135 
489.866 
423.888 
411.169 
444.356 
417.167 
352.096 
391.049 
389.101 
386.136 
399.469 
416.701 
420.871 
433.036 
428.644 
387.742 
445.488 
418.993 
387.352 
402.748 
342.443 
386.113 
400.414 
419.259 
378.842 
393.099 
507.884 
426.885 
438.716 
390.443 
396.042 
441.338 
424.86 
442.104 
367.63 
400.494 
435.12 
411.887 
404.727 
414.27 
364.638 
424.417 
414.384 
366.682 
382.64 
383.525 
420.878 
423.249 
403.181 
424.517 
387.696 
454.979 
418.141 
464.574 
463.288 
509.364 
417.833 
453.714 
412.168 
448.874 
418.215 
463.353 
441.094 
468.449 
427.909 
412.712 
391.107 
440.345 
456.308 
488.866 
427.764 
485.733 
416.515 
471.281 
444.579 
475.743 
480.901 
462.669 
419.563 
456.875 
488.901 
512.908 
465.028 
434.168 
528.159 
440.631 
477.232 
463.287 
405.38 
449.234 
465.649 
499.941 
433.318 
439.77 
482.346 
444.658 
441.507 
399.721 
435.28 
445.578 
395.417 
455.059 
439.924 
420.888 
481.119 
427.533 
458.537 
424.566 
520.799 
458.673 
428.87 
437.972 
449.491 
430.846 
496.301 
433.317 
488.211 
441.569 
420.003 
462.913 
419.998 
379.056 
457.063 
459.978 
408.063 
457.554 
456.821 
465.7 
467.824 
427.182 
410.59 
447.309 
460.384 
470.664 
472.639 
463.338 
391.577 
437.002 
425.779 
431.999 
432.673 
452.361 
463.394 
476.047 
461.335 
435.045 
418.502 
458.845 
460.707 
424.128 
413.206 
473.002 
516.092 
418.381 
469.95 
493.65 
514.616 
476.46 
474.267 
422.721 
419.521 
421.641 
450.876 
497.563 
459.636 
462.269 
483.235 
443.543 
429.474 
484.813 
471.223 
389.546 
437.466 
434.686 
436.82 
458.481 
451.533 
466.478 
419.557 
473.919 
508.029 
507.079 
443.484 
526.101 
412.48 
466.832 
478.375 
487.162 
472.753 
479.322 
441.96 
419.577 
469.964 
539.678 
472.611 
417.119 
402.792 
408.071 
491.481 
503.221 
447.461 
448.351 
494.894 
434.801 
503.561 
435.029 
472.734 
484.293 
522.151 
452.023 
469.04 
448.455 
454.859 
490.205 
457.891 
500.148 
462.863 
445.298 
501.38 
443.594 
482.325 
494.253 
436.355 
501.462 
456.661 
507.435 
520.716 
435.942 
495.163 
536.384 
509.76 
468.682 
458.582 
472.205 
488.289 
417.261 
418.017 
437.696 
447.26 
499.843 
463.895 
403.544 
397.433 
426.949 
412.332 
453.233 
406.873 
471.134 
443.183 
459.233 
511.593 
433.604 
440.601 
474.672 
459.767 
459.38 
493.882 
400.75 
539.774 
495.834 
489.597 
392.584 
472.959 
478.866 
441.981 
454.547 
450.002 
469.621 
477.093 
460.831 
498.551 
490.222 
450.35 
468.098 
422.615 
425.412 
474.666 
506.993 
504.817 
468.887 
471.943 
493.69 
484.589 
511.123 
477.989 
431.264 
500.234 
363.21 
438.67 
547.063 
510.443 
494.681 
485.917 
465.037 
467.371 
433.458 
444.151 
476.851 
444.52 
478.516 
440.408 
466.283 
423.456 
433.486 
487.999 
445.598 
519.341 
479.244 
505.501 
493.46 
501.571 
428.326 
457.897 
473.924 
430.196 
504.642 
463.769 
482.913 
408.9 
502.437 
435.44 
451.366 
448.658 
457.265 
445.611 
402.18 
476.34 
480.888 
436.402 
458.853 
506.488 
407.486 
442.622 
484.046 
461.125 
418.554 
464.4 
427.953 
493.855 
465.221 
486.94 
486.443 
415.775 
461.045 
532.327 
451.474 
455.693 
510.897 
501.25 
525.93 
518.424 
553.734 
483.948 
528.888 
470.288 
472.48 
458.658 
416.113 
557.471 
478.62 
464.136 
514.196 
553.661 
443.534 
558.873 
545.826 
594.13 
543.723 
517.227 
537.556 
531.778 
550.058 
574.385 
632.446 
416.306 
507.604 
491.807 
556.1 
491.89 
535.13 
477.616 
480.37 
494.914 
523.337 
496.804 
526.649 
523.99 
492.656 
556.942 
479.947 
488.979 
453.951 
534.907 
504.835 
436.452 
521.256 
480.248 
416.522 
508.442 
486.358 
421.144 
479.979 
470.864 
546.751 
505.757 
470.535 
489.104 
498.199 
528.524 
496.319 
520.054 
523.104 
493.553 
452.63 
449.02 
517.634 
474.471 
550.12 
474.812 
539.011 
472.527 
557.767 
447.986 
454.306 
506.11 
535.197 
554.443 
503.12 
533.1 
493.725 
509.39 
484.78 
443.319 
415.441 
436.963 
514.806 
541.376 
516.671 
529.121 
