ITEM: TIMESTEP
9600000
ITEM: NUMBER OF CELLS
1000
ITEM: BOX BOUNDS ss rr pp
0 0.004
0 0.01
-0.5 0.5
ITEM: CELLS f_temp1[*] 
319.486 
297.04 
280.5 
297.363 
326.747 
307.659 
290.553 
320.946 
329.837 
309.996 
310.318 
275.207 
282.351 
299.741 
313.891 
310.32 
323.803 
323.237 
363.222 
322.921 
302.937 
340.86 
284.626 
314.362 
304.576 
281.204 
296.968 
308.197 
314.317 
312.809 
292.668 
265.609 
296.155 
302.335 
297.163 
296.667 
299.225 
257.714 
287.571 
293.306 
320.019 
323.39 
266.849 
279.966 
284.857 
300.765 
318.248 
303.102 
311.352 
299.879 
281.45 
287.269 
304.878 
277.608 
297.821 
314.865 
297.195 
335.666 
315.799 
347.13 
315.835 
289.71 
325.964 
322.335 
312.678 
323.863 
273.909 
284.05 
325.642 
299.57 
334.84 
328.162 
322.835 
335.152 
307.666 
315.579 
324.873 
370.285 
340.58 
356.538 
302.003 
318.442 
284.991 
319.688 
338.014 
363.644 
332.475 
316.085 
296.14 
315.413 
307.941 
312.926 
351.992 
292.643 
307.969 
347.898 
325.795 
313.956 
267.579 
302.654 
293.875 
298.655 
298.759 
315.858 
311.666 
278.864 
298.463 
338.644 
287.305 
319.457 
307.99 
309.337 
291.393 
330.144 
327.101 
263.872 
329.228 
294.662 
332.308 
305.38 
318.326 
295.614 
334.345 
348.65 
304.706 
285.402 
308.416 
326.38 
303.797 
324.682 
318.51 
304.129 
311.747 
270.75 
317.251 
336.445 
348.096 
318.671 
323.78 
374.198 
326.606 
315.284 
330.846 
308.359 
307.914 
329.551 
298.013 
291.015 
303.249 
320.285 
361.92 
338.255 
308.256 
378.938 
315.554 
338.724 
347.387 
343.356 
369.134 
374.951 
350.012 
359.672 
335.743 
339.931 
311.129 
336.388 
319.727 
335.614 
344.086 
360.973 
354.577 
335.4 
292.116 
370.523 
343.676 
292.692 
310.479 
328.938 
338.643 
330.015 
338.823 
371.656 
338.424 
326.407 
374.015 
340.269 
332.283 
324.973 
345.867 
330.165 
328.474 
396.483 
384.212 
379.003 
353.699 
331.846 
338.706 
343.639 
327.824 
372.093 
326.333 
355.364 
341.801 
306.904 
342.905 
321.787 
364.552 
342.053 
350.576 
363.134 
329.319 
330.327 
345.421 
371.592 
338.287 
331.092 
351.923 
334.923 
384.73 
371.055 
379.614 
340.232 
358.486 
388.087 
364.917 
354.74 
404.983 
361.414 
335.897 
360.135 
371.936 
350.021 
351.336 
361.439 
332.249 
354.866 
373.253 
359.755 
374.578 
321.547 
342.598 
341.727 
381.404 
361.003 
375.341 
355.018 
346.56 
344.891 
368.533 
318.514 
368.379 
321.802 
359.216 
353.475 
348.73 
352.541 
364.265 
366.947 
328.203 
396.709 
274.403 
318.879 
348.401 
367.849 
387.345 
354.643 
360.707 
354.415 
303.67 
342.395 
353.619 
336.393 
366.715 
365.399 
349.419 
371.429 
362.799 
344.897 
369.381 
348.392 
322.843 
410.276 
324.351 
368.844 
388.353 
415.519 
334.81 
356.312 
335.435 
417.599 
370.721 
320.677 
397.083 
392.596 
335.548 
420.584 
354.899 
370.725 
405.964 
308.029 
388.318 
367.317 
334.446 
352.793 
372.841 
343.897 
371.637 
328.102 
334.471 
389.765 
386.41 
363.933 
383.283 
325.433 
347.687 
395.037 
380.999 
380.421 
388.496 
376.207 
380.931 
326.617 
341.776 
351.096 
375.603 
338.332 
353.47 
332.469 
377.471 
374.264 
354.189 
338.83 
355.267 
375.037 
415.358 
363.302 
311.435 
353.909 
370.286 
350.438 
379.407 
394.161 
379.007 
336.044 
443.899 
385.736 
411.592 
390.362 
442.17 
393.328 
383.05 
375.974 
371.623 
381.146 
373.098 
420.072 
367.902 
350.301 
343.115 
368.394 
366.977 
379.725 
349.903 
415.444 
397.379 
469.976 
412.633 
420.036 
341.376 
339.809 
382.703 
434.479 
399.104 
405.753 
362.394 
372.454 
383.17 
415.962 
398.593 
380.272 
362.355 
373.66 
385.42 
331.523 
364.752 
396.741 
389.977 
387.96 
399.772 
438.881 
361.344 
442.429 
360.078 
416.527 
352.226 
362.838 
387.542 
426.684 
366.193 
409.741 
439.123 
387.38 
398.366 
408.108 
345.23 
456.432 
461.037 
376.665 
415.473 
398.82 
375.72 
420.477 
392.664 
339.325 
415.891 
329.917 
367.946 
377.736 
393.062 
366.848 
361.495 
398.544 
390.692 
365.203 
373.853 
380.594 
418.81 
425.033 
396.598 
431.257 
435.746 
369.153 
385.388 
399.981 
380.353 
409.276 
363.09 
357.818 
407.027 
376.775 
372.953 
378.101 
369.171 
361.269 
403.534 
345.072 
417.675 
436.678 
372.642 
434.128 
388.274 
390.739 
401.874 
366.807 
455.586 
379.574 
355.076 
368.928 
388.878 
359.225 
379.664 
333.161 
400.583 
388.746 
380.704 
407.623 
432.543 
399.472 
404.695 
389.596 
354.69 
441.77 
362.797 
399.197 
436.603 
403.291 
381.185 
392.857 
375.149 
429.347 
364.112 
396.364 
379.592 
383.683 
428.239 
382.982 
381.839 
407.691 
369.71 
400.122 
367.505 
437.196 
427.04 
429.266 
363.4 
358.429 
422.11 
405.215 
418.834 
357.205 
396.601 
435.084 
381.281 
421.227 
384.89 
508.019 
467.448 
424.627 
441.642 
440.023 
400.334 
439.12 
417.682 
400.664 
408.47 
449.96 
455.585 
418.572 
442.82 
488.994 
436.21 
425.233 
472.246 
429.735 
429.521 
406.004 
359.734 
426.438 
402.598 
441.856 
483.313 
408.649 
433.475 
467.364 
474.069 
465.337 
411.965 
493.799 
479.497 
411.265 
457.766 
419.479 
428.854 
409.114 
430.999 
441.421 
460.309 
435.395 
422.778 
422.926 
426.428 
437.37 
449.707 
437.245 
450.85 
440.171 
494.007 
449.589 
410.094 
419.804 
412.504 
440.241 
430.853 
419.028 
500.517 
477.541 
424.405 
394.201 
387.297 
403.173 
466.747 
384.311 
438.185 
413.648 
439.355 
461.456 
426.817 
486.594 
493.908 
381.967 
426.16 
437.218 
448.649 
422.309 
390.09 
400.356 
403.419 
387.203 
401.365 
432.058 
385.967 
398.191 
412.726 
442.317 
390.859 
408.886 
410.034 
473.61 
405.726 
429.563 
427.7 
407.852 
411.183 
415.406 
428.349 
436.453 
460.936 
370.955 
417.631 
430.732 
481.671 
419.54 
364.22 
463.38 
444.027 
437.513 
372.414 
381.871 
430.31 
437.761 
378.979 
409.972 
420 
406.086 
455.769 
446.613 
406.62 
466.483 
435.342 
412.724 
346.761 
384.758 
395.686 
427.132 
402.724 
469.734 
395.133 
373.197 
384.432 
453.933 
368.44 
419.445 
417.803 
437.679 
422.18 
463.389 
443.067 
413.438 
448.194 
452.043 
392.659 
436.447 
412.207 
428.952 
443.275 
415.018 
407.253 
417.875 
393.597 
447.648 
406.566 
410.864 
444.374 
438.706 
498.214 
446.729 
422.41 
480.169 
451.742 
493.924 
448.704 
497.369 
444.992 
432.309 
441.429 
493.364 
465.792 
422.44 
480.073 
450.777 
382.205 
449.423 
435.819 
466.275 
463.611 
487.278 
486.414 
436.753 
487.39 
500.944 
444.3 
430.51 
444.281 
436.04 
474.052 
472.924 
435.243 
449.628 
548.53 
473.179 
511.159 
488.379 
506.748 
462.359 
439.969 
446.338 
450.072 
411.62 
450.385 
446.41 
424.729 
500.36 
440.899 
465.983 
435.279 
490.54 
474.715 
511.274 
457.555 
440.332 
343.375 
402.753 
440.721 
428.861 
453.501 
465.798 
460.326 
490.522 
442.421 
426.397 
406.898 
451.796 
409.675 
420.084 
460.769 
376.308 
443.874 
412.043 
434.652 
459.234 
481.3 
416.859 
406.37 
453.456 
419.548 
493.723 
402.141 
432.911 
434.333 
443.912 
370.297 
427.544 
390.792 
403.613 
472.424 
441.548 
388.006 
434.235 
410.422 
447.365 
426.573 
496.166 
451.489 
454.786 
428.71 
483.023 
459.939 
465.847 
439.894 
457.796 
453.546 
492.095 
439.198 
431.519 
441.657 
489.693 
479.883 
474.266 
423.623 
406.226 
454.204 
407.515 
435.182 
447.473 
448.631 
407.094 
413.595 
429.637 
425.927 
431.247 
409.761 
423.37 
400.705 
435.774 
472.651 
466.289 
383.52 
442.716 
470.513 
482.216 
420.5 
455.786 
420.383 
391.269 
419.72 
446.973 
436.653 
407.13 
439.89 
423.875 
482.355 
452.648 
435.623 
459.422 
449.313 
423.148 
433.55 
482.691 
458.538 
518.646 
467.987 
492.597 
443.122 
420.014 
495.166 
471.622 
479.981 
502.503 
499.567 
495.272 
480.258 
537.453 
494.953 
469.668 
481.049 
503.961 
449.33 
477.362 
426.061 
512.64 
501.938 
501.625 
459.412 
461.499 
432.044 
450.474 
490.099 
522.981 
497.138 
515.974 
507.899 
463.149 
437.122 
469.057 
438.379 
445.412 
450.918 
519.167 
457.698 
523.287 
400.503 
446.774 
425.944 
464.142 
418.667 
533.686 
547.455 
537.927 
490.757 
434.232 
417.793 
470.447 
448.856 
444.549 
481.411 
431.67 
451.776 
464.967 
501.087 
493.69 
478.973 
466.877 
506.854 
406.135 
476.304 
480.103 
449.123 
493.713 
461.349 
489.317 
491.65 
500.549 
514.909 
485.644 
540.925 
500.077 
527.678 
451.419 
498.418 
525.278 
494.026 
526.255 
483.256 
483.459 
517.142 
514.046 
473.806 
447.145 
430.609 
476.792 
423.433 
465.692 
458.502 
427.022 
517.162 
501.659 
520.499 
511.194 
506.062 
459.982 
474.65 
488.86 
469.983 
502.94 
501.66 
521.128 
551.231 
480.645 
457.819 
548.718 
521.905 
493.454 
408.162 
472.771 
475.824 
423.301 
419.489 
453.711 
490.533 
483.551 
392.13 
403.105 
567.545 
471.01 
496.977 
481.714 
402.999 
383.631 
457.94 
499.805 
435.961 
468.178 
501.799 
437.191 
506.908 
503.346 
502.645 
473.958 
504.662 
502.109 
554.422 
536.278 
470.628 
411.394 
453.549 
417.971 
463.785 
460.101 
462.603 
528.967 
374.053 
434.433 
485.803 
450.855 
440.943 
421.392 
455.232 
520.489 
470.568 
502.233 
506.121 
441.739 
478.205 
474.869 
528.05 
570.83 
594.168 
525.008 
531.564 
468.199 
557.475 
515.586 
499.242 
536.786 
492.956 
466.889 
481.217 
598.675 
499.942 
491.696 
