ITEM: TIMESTEP
1300000
ITEM: NUMBER OF CELLS
1000
ITEM: BOX BOUNDS ss rr pp
0 0.004
0 0.01
-0.5 0.5
ITEM: CELLS f_temp1[*] 
306.037 
299 
287.207 
318.964 
319.341 
324.73 
310.563 
325.32 
319.502 
319.598 
326.17 
325.219 
312.305 
312.869 
323.977 
302.254 
298.693 
306.545 
296.604 
297.532 
289.511 
287.451 
280.961 
281.655 
296.868 
285.046 
307.01 
309.925 
289.835 
281.135 
307.734 
309.31 
265.457 
333.349 
296.002 
308.774 
312.339 
314.214 
310.124 
288.245 
319.035 
290.389 
306.734 
312.462 
283.225 
290.643 
291.259 
312.465 
306.103 
341.053 
330.761 
294.758 
319.786 
309.656 
317.214 
308.26 
305.023 
314.592 
324.963 
379.193 
339.155 
328.216 
330.957 
350.27 
336.678 
380.521 
359.299 
317.177 
307.996 
304.477 
353.194 
375.744 
386.448 
339.975 
346.783 
313.893 
329.443 
364.478 
363.277 
330.23 
310.193 
330.704 
354.867 
332.018 
309.091 
305.983 
335.416 
339.987 
304.599 
320.409 
347.482 
342.331 
303.923 
314.603 
288.521 
329.913 
338.13 
321.409 
321.847 
313.705 
286.736 
328.419 
322.143 
314.665 
285.589 
329.13 
305.936 
311.254 
260.198 
317.645 
336.361 
325.486 
324.9 
327.629 
345.156 
336.269 
355.421 
311.312 
317.112 
365.212 
305.775 
318.933 
332.095 
327.777 
303.157 
325.068 
328.702 
347.849 
341.969 
300.364 
287.88 
378.191 
332.648 
336.025 
387.834 
336.202 
388.704 
370.519 
374.021 
364.359 
336.292 
351.625 
365.89 
363.3 
341.412 
358.441 
390.312 
334.631 
369.805 
336.841 
387.925 
381.338 
332.362 
371.98 
371.819 
334.933 
327.449 
361.292 
371.143 
344.877 
350.679 
378.829 
375.534 
335.878 
384.702 
355.891 
356.471 
388.593 
406.075 
351.684 
334.187 
330.133 
356.198 
349.114 
379.342 
367.723 
365.157 
357.116 
360.169 
336.742 
356.209 
318.464 
357.819 
321.368 
339.975 
331.712 
349.858 
336.076 
312.437 
326.393 
361.466 
345.1 
324.989 
304.305 
305.807 
316.796 
357.106 
335.197 
316.314 
316.976 
345.465 
324.754 
333.575 
298.005 
306.918 
343.292 
340.178 
322.624 
367.941 
355.714 
334.486 
383.714 
335.707 
404.401 
353.98 
361.253 
327.301 
337.933 
301.343 
329.066 
330.308 
348.16 
289.8 
317.934 
347.753 
344 
330.431 
296.662 
367.897 
391.131 
360.324 
368.071 
335.94 
322.186 
306.84 
374.734 
344.557 
380.889 
330.278 
367.908 
337.908 
360.578 
347.944 
374.712 
367.579 
322.466 
387.402 
391.02 
421.993 
375.754 
334.189 
347.515 
335.474 
422.114 
403.927 
397.913 
371.103 
388.983 
430.727 
408.348 
356.656 
338.95 
374.828 
350.744 
399.536 
350.231 
373.509 
353.089 
374.114 
396.723 
331.313 
354.145 
396.239 
347.257 
352.799 
376.462 
379.218 
390.258 
402.406 
367.825 
370.331 
367.342 
367.936 
373.23 
398.569 
377.553 
376.15 
364.119 
392.309 
362.024 
383.015 
361.894 
411.634 
365.536 
361.237 
412.22 
332.845 
372.324 
347.038 
338.68 
327.078 
346.363 
369.955 
380.214 
396.686 
396.117 
362.082 
380.578 
398.102 
363.054 
375.02 
354.043 
346.246 
369.86 
385.134 
367.703 
370.437 
382.205 
377.564 
346.381 
391.005 
364.09 
368.023 
346.956 
387.583 
351.997 
404.774 
364.429 
347.078 
331.855 
372.148 
361.419 
348.09 
366.8 
397.156 
384.467 
393.529 
354.629 
449.547 
401.102 
435.368 
409.686 
413.413 
393.545 
347.081 
395.384 
391.04 
384.594 
395.488 
361.952 
369.874 
422.895 
384.631 
422.533 
338.707 
378.101 
394.716 
353.638 
363.084 
428.238 
391.26 
347.766 
362.948 
387.746 
336.882 
389.701 
408.76 
368.726 
349.635 
378.63 
403.996 
455.609 
337.038 
363.941 
408.318 
395.982 
386.177 
390.633 
368.12 
324.921 
345.183 
414.615 
370.67 
309.986 
375.748 
385.354 
367.135 
342.389 
404.243 
396.235 
381.334 
407.517 
418.941 
404.765 
397.477 
398.462 
381.832 
437.724 
389.788 
394.247 
385.729 
373.448 
397.989 
397.301 
405.299 
374.707 
349.643 
388.7 
399.456 
409.656 
428.831 
383.277 
378.327 
360.78 
418.083 
408.911 
375.299 
435.428 
443.135 
412.699 
399.081 
378.86 
415.958 
458.581 
455.47 
419.542 
453.079 
403.272 
458.209 
397.067 
411.013 
395.308 
407.272 
486.071 
410.294 
425.577 
463.014 
419.853 
395.986 
377.065 
457.78 
396.517 
398.827 
396.04 
381.482 
393.505 
380.803 
401.904 
428.462 
454.039 
443.612 
421.67 
456.162 
433.319 
409.969 
421.157 
377.159 
420.645 
373.34 
406.827 
419.144 
479.271 
425.645 
452.736 
421.005 
434.926 
409.749 
421.463 
479.84 
467.909 
420.348 
451.586 
469.893 
484.474 
429.065 
434.428 
419.57 
424.615 
425.59 
428.41 
387.284 
393.379 
443.524 
392.559 
459.666 
425.874 
380.015 
408.409 
420.1 
416.459 
406.068 
382.632 
409.348 
414.738 
417.634 
407.516 
391.97 
402.715 
411.836 
415.204 
373.879 
428.742 
386.292 
387.548 
480.868 
332.048 
412.271 
373.205 
448.726 
383.944 
410.738 
401.951 
402.559 
391.471 
424.882 
390.242 
417.152 
447.347 
402.228 
448.346 
427.304 
404.067 
430.574 
375.443 
401.711 
390.751 
431.506 
437.697 
399.084 
405.745 
386.968 
403.103 
445.493 
481.137 
456.729 
362.749 
402.46 
423.272 
451.847 
436.363 
395.875 
396.024 
398.186 
389.33 
402.049 
434.834 
495.231 
423.512 
436.341 
426.64 
422.119 
437.182 
388.348 
449.218 
391.682 
401.902 
391.694 
396.135 
409.601 
397.277 
457.854 
415.936 
437.533 
464.536 
409.466 
451.076 
455.448 
430.042 
436.525 
388.484 
442.548 
429.499 
390.145 
483.583 
475.442 
381.802 
475.229 
461.351 
423.5 
431.55 
437.143 
426.195 
443.828 
401.156 
440.284 
424.417 
434.526 
426.655 
416.526 
468.459 
483.719 
423.964 
450.681 
433.159 
386.353 
423.869 
440.186 
448.212 
494.019 
427.05 
438.698 
457.983 
407.863 
389.185 
395.216 
442.678 
482.044 
409.449 
427.518 
420.153 
433.558 
413.673 
422.359 
434.62 
403.645 
424.745 
413.364 
433.149 
406.681 
462.907 
441.117 
429.688 
419.771 
412.098 
432.721 
426.104 
429.176 
464.791 
477.711 
459.327 
459.893 
372.246 
413.564 
450.588 
384.244 
453.554 
439.217 
418.646 
427.301 
406.879 
477.164 
436.432 
374.873 
441.799 
441.836 
429.731 
382.722 
418.355 
415.469 
424.148 
442.607 
406.641 
396.037 
426.044 
393.534 
420.457 
433.898 
390.185 
431.58 
443.095 
450.134 
398.704 
434.348 
452.015 
438.946 
416.144 
410.997 
395.082 
415.403 
420.872 
404.488 
417.242 
428.79 
389.289 
445.538 
437.471 
498.548 
411.507 
430.84 
447.535 
492.092 
484.341 
498.997 
442.748 
450.51 
427.656 
446.048 
530.77 
490.627 
482.13 
450.683 
450.791 
469.783 
449.329 
455.164 
553.597 
447.438 
484.378 
465.177 
484.94 
458.546 
370.476 
437.285 
415.892 
459.039 
422.149 
448.056 
402.116 
476.014 
420.081 
464.912 
506.962 
418.996 
470.95 
424.022 
458.581 
404.433 
457.983 
457.374 
412.652 
477.931 
393.765 
413.837 
444.38 
475.537 
500.082 
464.256 
429.903 
400.285 
453.124 
414.305 
536.373 
473.187 
469.677 
459.139 
461.588 
475.024 
461.861 
493.663 
482.017 
455.852 
468.457 
445.862 
464.262 
473.876 
470.136 
433.69 
455.11 
482.438 
523.832 
435.022 
512.277 
422.939 
463.211 
399.644 
458.118 
453.451 
496.068 
455.035 
435.196 
425.134 
396.373 
428.307 
450.89 
446.757 
437.466 
476.73 
464.142 
460.003 
431.409 
447.36 
495.364 
420.59 
461.972 
465.634 
439.011 
435.139 
431.452 
487.843 
454.354 
448.853 
472.764 
447.186 
373.023 
433.072 
411.35 
374.808 
421.36 
377.919 
426.478 
418.13 
468.842 
425.732 
410.858 
464.519 
444.175 
433.654 
440.616 
424.318 
410.779 
463.457 
406.203 
420.79 
502.394 
425.202 
406.468 
504.656 
513.153 
452.831 
460.171 
464 
450.883 
482.213 
457.978 
461.788 
471.215 
442.631 
483.494 
476.052 
493.487 
427.14 
455.154 
459.627 
421.5 
546.319 
521.337 
496.389 
494.248 
387.541 
502.753 
406.004 
467.503 
464.766 
457.347 
471.853 
466.084 
452.883 
424.832 
439.864 
462.001 
478.772 
413.467 
452.674 
457.136 
428.25 
453.037 
517.005 
421.749 
501.505 
538.135 
437.896 
476.284 
530.687 
503.118 
503.049 
529.427 
465.512 
405.275 
459.695 
530.771 
486.827 
490.825 
510.991 
454.192 
435.642 
484.27 
455.628 
462.66 
600.262 
410.071 
489.398 
396.576 
448.536 
448.64 
482.088 
393.648 
523.621 
453.083 
490.448 
525.119 
406.276 
459.914 
432.387 
435.055 
468.48 
459.968 
437.694 
431.863 
435.702 
455.22 
466.528 
389.238 
445.353 
463.47 
528.25 
445.825 
515.897 
464.362 
497.602 
484.001 
457.598 
459.054 
467.598 
462.128 
483.593 
475.892 
512.328 
526.342 
495.835 
493.33 
444.812 
453.238 
498.032 
488.583 
426.443 
532.179 
527.461 
447.647 
516.31 
480.898 
531.497 
443.473 
465.48 
450.932 
467.774 
395.492 
486.956 
446.67 
401.149 
435.686 
505.182 
522.249 
460.476 
429.994 
530.588 
402.199 
475.369 
500.814 
467.721 
510.976 
449.889 
433.613 
462.162 
502.617 
478.595 
378.486 
462.218 
444.675 
389.541 
491.049 
490.679 
426.052 
447.836 
481.824 
429.201 
519.514 
449.932 
419.824 
439.357 
473.521 
499.641 
481.785 
442.948 
515.043 
489.505 
524.181 
438.866 
445.145 
442.853 
498.2 
495.787 
418.42 
408.957 
481.306 
491.683 
442.294 
457.32 
444.521 
498.711 
511.745 
451.573 
465.219 
514.343 
499.616 
438.044 
495.578 
454.091 
539.133 
453.113 
478.36 
414.533 
443.191 
525.095 
465.041 
487.934 
521.442 
465.112 
579.908 
502.708 
446.75 
