ITEM: TIMESTEP
8500000
ITEM: NUMBER OF CELLS
1000
ITEM: BOX BOUNDS ss rr pp
0 0.004
0 0.01
-0.5 0.5
ITEM: CELLS f_temp1[*] 
283.733 
290.418 
317.654 
338.338 
290.995 
298.534 
300.404 
299.647 
314.571 
321.454 
320.369 
263.216 
300.577 
305.645 
330.36 
274.096 
294.027 
293.976 
292.714 
290.898 
316.518 
293.555 
287.418 
294.52 
318.127 
298.016 
310.709 
295.365 
325.482 
335.456 
294.187 
302.463 
321.556 
339.23 
293.927 
253.634 
303.3 
281.986 
294.726 
327.132 
294.83 
276.569 
286.544 
289.658 
287.902 
320.825 
292.159 
304.473 
320.223 
333.531 
294.394 
315.351 
277.536 
297.877 
287.191 
303.773 
292.829 
295.752 
315.514 
298.105 
317.764 
316.781 
309.015 
337.392 
325.622 
339.94 
330.169 
302.262 
343.415 
303.728 
322.198 
316.082 
288.278 
326.081 
298.831 
303.276 
289.783 
275.383 
279.97 
269.366 
306.039 
312.749 
300.918 
280.318 
301.491 
293.953 
332.713 
345.113 
299.292 
340.602 
319.926 
372.804 
288.087 
322.829 
344.545 
316.834 
347.01 
362.247 
313.154 
343.907 
338.922 
362.969 
346.714 
357.796 
373.708 
316.12 
323.078 
343.28 
348.307 
320.069 
335.273 
334.011 
339.316 
314.869 
314.658 
294.97 
348.232 
323.099 
321.573 
362.837 
340.758 
331.573 
345.943 
326.176 
331.185 
342.543 
357.34 
349.373 
321.724 
358.066 
317.741 
325.146 
350.592 
334.015 
308.89 
281.822 
306.665 
317.652 
331.579 
343.242 
347.731 
335.684 
330.75 
327.764 
314.044 
331.254 
324.834 
342.397 
347.891 
347.639 
328.211 
372.777 
347.993 
310.04 
358.394 
313.323 
336.954 
347.876 
326.694 
366.103 
329.934 
377.79 
318.677 
321.809 
328.141 
357.969 
361.295 
367.14 
343.448 
296.314 
353.338 
341.166 
358.096 
308.579 
352.736 
329.793 
360.603 
314.531 
329.599 
321.015 
348.594 
325.653 
323.624 
344.64 
361.976 
317.492 
361.66 
352.473 
313.925 
330.185 
328.459 
329.601 
289.188 
310.291 
288.49 
360.805 
332.468 
337.073 
364.475 
351.727 
340.863 
355.452 
321.572 
346.211 
328.029 
380.097 
346.036 
383.679 
349.449 
296.755 
355.436 
384.062 
371.002 
367.953 
349.202 
358.869 
327.709 
336.788 
320.297 
347.031 
378.541 
389.73 
329.057 
379.932 
338.841 
348.281 
333.16 
321.754 
313.258 
339.942 
330.715 
321.503 
314.57 
344.905 
334.247 
337.587 
346.482 
383.3 
351.681 
339.072 
364.65 
373.217 
365.19 
389.589 
335.828 
394.455 
341.199 
412.05 
353.09 
369.882 
364.758 
382.615 
408.865 
406.335 
346.396 
368.951 
312.181 
363.181 
331.823 
395.162 
388.582 
359.084 
352.415 
374.164 
371.226 
337.204 
341.563 
346.37 
384.013 
377.611 
370.64 
389.866 
324.672 
348.472 
323.03 
375.128 
367.838 
351.093 
370.434 
352.388 
385.008 
375.126 
342.568 
375.264 
332.54 
369.233 
333.187 
345.358 
376.277 
293.5 
359.297 
326.874 
334.974 
367.05 
360.175 
372.629 
374.766 
361.757 
381.072 
396.922 
333.402 
369.581 
387.021 
396.408 
361.881 
387.483 
398.685 
363.039 
347.813 
362.206 
355.88 
370.91 
348.725 
359.858 
318.168 
384.838 
328.734 
385.718 
369.555 
369.247 
365.792 
379.922 
375.997 
333.632 
339.447 
353.426 
411.262 
373.933 
340.33 
394.07 
342.236 
359.103 
383.709 
399.454 
335.399 
393.741 
354.219 
386.709 
381.315 
379.316 
398.839 
421.855 
440.248 
454.09 
373.592 
471.839 
386.224 
331.976 
385.2 
397.433 
379.248 
334.72 
359.61 
399.578 
384.376 
376.268 
382.03 
386.793 
413.045 
470.121 
463.409 
394.29 
407.937 
384.178 
457.808 
370.106 
389.565 
387.969 
363.378 
398.321 
355.216 
388.975 
358.192 
414.312 
413.648 
361.965 
366.35 
336.41 
377.67 
379.97 
373.316 
376.045 
368.355 
350.159 
417.78 
323.12 
375.792 
404.599 
413.648 
381.463 
403.997 
396.604 
429.749 
434.167 
371.888 
422.123 
375.966 
371.233 
380.651 
399.275 
398.162 
345.312 
382.834 
377.234 
415.398 
357.141 
416.499 
370.445 
374.192 
386.346 
410.909 
349.882 
371.616 
419.11 
360.299 
436.806 
445.19 
453.358 
387.889 
435.876 
391.712 
391.892 
461.2 
413.306 
401.1 
397.553 
420.959 
419.886 
418.883 
358.22 
435.731 
418.472 
401.011 
412.499 
459.881 
380.737 
366.761 
392.122 
381.974 
381.092 
352.591 
413.6 
381.712 
421.872 
401.343 
486.802 
430.909 
408.395 
393.533 
388.478 
405.246 
420.921 
452.251 
404.046 
395.537 
398.228 
390.117 
401.07 
386.193 
390.898 
417.368 
388.339 
449.423 
427.907 
384.678 
396.446 
414.396 
363.352 
360.429 
385.901 
390.676 
380.841 
388.796 
349.048 
404.814 
364.937 
388.611 
429.964 
391.943 
427.962 
434.003 
436.365 
464.738 
397.374 
419.803 
451.251 
416.642 
369.341 
394.827 
440.975 
468.289 
361.619 
361.307 
397.242 
387.429 
423.729 
432.966 
383.102 
375.451 
436.247 
394.575 
423.569 
407.166 
349.212 
417.502 
375.364 
375.924 
443.628 
397.607 
415.177 
342.383 
401.839 
405.254 
417.961 
393.009 
423.304 
413.024 
410.64 
438.678 
379.007 
451.551 
437.59 
383.825 
418.467 
408.461 
432.942 
364.993 
381.67 
429.695 
399.297 
399.539 
415.84 
380.608 
407.892 
400.673 
392.002 
366.986 
435.931 
411.779 
366.435 
438.241 
396.557 
397.981 
386.864 
417.45 
395.418 
400.193 
367.684 
384.751 
413.191 
418.569 
412.692 
391.917 
427.94 
445.789 
470.947 
478.9 
389.457 
376.074 
410.014 
389.053 
408.639 
391.429 
446.333 
438.745 
458.511 
427.668 
433.43 
396.86 
405.476 
473.318 
463.672 
429.392 
474.98 
430.356 
352.933 
402.208 
421.232 
430.555 
426.357 
450.034 
425.101 
404.33 
468.883 
416.386 
398.483 
456.012 
480.781 
434.459 
426.57 
422.096 
429.993 
452.655 
389.518 
430.64 
472.459 
413.793 
394.572 
513.536 
439.42 
416.082 
458.14 
451.307 
459.107 
438.386 
464.3 
378.9 
459.622 
455.92 
446.901 
512.736 
504.195 
493.505 
423.953 
419.36 
416.832 
403.772 
490.052 
373.571 
430.385 
514.303 
509.792 
484.472 
482.138 
411.337 
515.613 
450.553 
474.342 
447.17 
471.468 
464.018 
464.126 
469.129 
439.782 
389.062 
453.701 
435.927 
488.213 
458.096 
411.857 
412.007 
500.974 
435.053 
454.012 
475.963 
498.968 
452.712 
443.166 
501.842 
435.812 
445.035 
460.079 
452.953 
448.408 
400.759 
420.322 
417.457 
504.867 
429.004 
467.463 
427.22 
447.789 
400.482 
427.486 
404.144 
406.92 
467.985 
461.519 
435.985 
482.109 
443.63 
407.064 
435.528 
425.868 
450.636 
447.047 
456.719 
440.11 
462.268 
412.028 
426.319 
474.429 
397.787 
453.909 
419.217 
423.641 
403.62 
468.788 
353.629 
477.371 
404.423 
458.987 
336.989 
475.839 
430.06 
480.557 
489.737 
420.272 
412.729 
444.388 
429.507 
405.645 
500.088 
452.89 
460.243 
436.796 
433.883 
413.008 
517.07 
477.784 
409.497 
465.146 
441.509 
522.259 
522.01 
488.127 
495.395 
439.781 
478.712 
445.492 
490.199 
462.99 
479.336 
516.759 
434.755 
445.068 
541.481 
493.462 
439.672 
412.982 
512.913 
465.85 
506.266 
458.755 
435.026 
439.946 
445.98 
460.142 
485.314 
381.237 
402.122 
457.421 
451.899 
485.332 
453.717 
407.748 
404.901 
444.023 
428.569 
398.621 
473.631 
453.304 
441.848 
421.357 
445.374 
448.7 
429.042 
432.685 
460.358 
405.827 
479.231 
470.848 
460.198 
458.451 
429.436 
512.074 
451.323 
539.544 
452.825 
462.17 
430.38 
442.249 
473.712 
463.546 
463.242 
460.681 
491.076 
465.001 
464.021 
466.019 
431.19 
478.893 
475.277 
457.273 
458.45 
445.595 
473.536 
422.697 
450.013 
438.38 
451.302 
437.831 
409.673 
478.019 
500.012 
519.652 
483.378 
471.444 
476.294 
413.045 
465.428 
413.315 
402.94 
483.586 
501.943 
573.636 
433.746 
399.738 
482.838 
423.762 
455.604 
475.422 
417.619 
445.182 
502.392 
357.857 
418.88 
518.075 
448.8 
415.23 
497.315 
518.827 
509.508 
505.864 
467.263 
496.636 
489.703 
480.808 
471.043 
392.206 
440.396 
514.463 
509.295 
454.224 
468.187 
551.8 
435.938 
502.911 
515.151 
483.372 
450.423 
528.219 
470.593 
544.878 
487.94 
536.929 
465.184 
498.548 
462.86 
450.191 
545.737 
572.827 
546.046 
496.394 
541.707 
539.589 
477.886 
526.498 
494.833 
546.776 
479.464 
467.253 
405.971 
472.277 
587.355 
587.488 
483.056 
437.579 
497.103 
505.98 
482.118 
480.048 
488.339 
539.249 
446.922 
531.123 
463.419 
555.743 
592.616 
579.948 
452.753 
492.148 
528.436 
480.458 
488.259 
503.833 
508.245 
434.474 
502.322 
515.726 
459.877 
431.034 
492.178 
474.83 
438.168 
440.017 
476.628 
466.682 
430.457 
530.117 
553.501 
493.147 
458.984 
456.438 
447.487 
441.657 
484.955 
542.231 
455.086 
503.182 
436.884 
612.504 
468.195 
537.353 
616.411 
534.545 
483.681 
413.343 
476.479 
502.023 
481.092 
535.271 
518.228 
487.399 
432.337 
420.736 
515.041 
526.665 
505.627 
512.29 
543.41 
454.592 
518.785 
501.8 
562.999 
481.795 
603.128 
533.599 
476.543 
470.043 
497.15 
541.221 
488.701 
475.231 
472.895 
494.186 
473.725 
497.873 
500.524 
439.759 
558.39 
431.167 
600.188 
517.249 
506.947 
521.169 
450.372 
426.006 
466.142 
460.303 
423.616 
496.924 
428.928 
451.974 
462.345 
498.342 
483.953 
487.459 
467.862 
542.747 
557.891 
490.685 
531.529 
500.682 
431.704 
529.787 
469.011 
439.625 
495.453 
437.85 
460.208 
463.599 
472.621 
496.325 
500.761 
508.652 
494.925 
462.975 
518.682 
526.353 
449.458 
439.061 
484.674 
494.564 
420.28 
482.646 
480.563 
535.567 
535.345 
499.227 
