ITEM: TIMESTEP
9300000
ITEM: NUMBER OF CELLS
1000
ITEM: BOX BOUNDS ss rr pp
0 0.004
0 0.01
-0.5 0.5
ITEM: CELLS f_temp1[*] 
291.335 
332.213 
298.747 
331.941 
299.052 
304.435 
309.848 
309.554 
286.528 
268.109 
335.842 
285.009 
316.205 
294.419 
297.138 
319.365 
306.532 
326.473 
287.429 
293.243 
302.631 
313.59 
306.637 
286.531 
296.013 
349.689 
325.695 
307.879 
313.527 
334.755 
312.875 
296.064 
310.725 
281.423 
291.077 
290.034 
320.53 
303.058 
311.927 
286.419 
289.988 
302.316 
297.369 
336.917 
285.005 
307.662 
339.832 
304.429 
303.517 
327.648 
308.648 
320.213 
320.272 
317.424 
288.544 
312.234 
297.024 
298.143 
306.876 
377.704 
328.34 
292.9 
322.796 
307.379 
356.176 
328.886 
317.094 
312.244 
354.405 
363.601 
311.548 
326.889 
322.74 
322.659 
373.445 
367.084 
353.731 
367.176 
300.287 
389.362 
277.463 
289.777 
325.012 
330.409 
348.503 
346.17 
329.462 
345.672 
310.929 
340.601 
321.462 
305.945 
324.579 
321.995 
312.35 
311.107 
386.065 
339.008 
352.351 
355.554 
367.065 
307.942 
361.79 
323.099 
322.806 
357.168 
332.853 
337.641 
351.914 
337.159 
330.556 
307.567 
313.435 
315.011 
364.382 
332.304 
377.944 
323.787 
334.016 
290.066 
312.815 
303.661 
315.352 
352.023 
329.073 
329.698 
324.563 
315.911 
329.447 
325.04 
352.918 
321.216 
347.266 
316.498 
343.171 
351.62 
328.689 
348.517 
354.524 
329.941 
312.794 
339.339 
302.317 
318.249 
373.533 
326.883 
322.361 
349.446 
360.088 
330.143 
331.276 
327.419 
341.705 
329.479 
361.548 
361.451 
346.038 
373.483 
329.727 
354.155 
307.31 
329.245 
344.13 
337.983 
306.729 
296.07 
346.942 
329.983 
310.215 
326.525 
339.866 
317.074 
368.404 
371.492 
300.683 
324.795 
335.158 
341.435 
331.764 
327.157 
349.159 
311.901 
341.034 
338.301 
349.324 
341.845 
349.455 
336.57 
313.086 
324.593 
308.649 
343.203 
365.399 
317.533 
323.604 
361.618 
347.849 
343.128 
364.987 
334.071 
379.77 
363.33 
394.943 
343.744 
342.3 
323.747 
320.064 
341.247 
343.519 
375.224 
350.295 
358.144 
318.5 
359.095 
297.407 
319.012 
337.217 
361.917 
345.458 
363.149 
378.841 
348.28 
331.898 
343.616 
348.55 
360.871 
336.164 
338.979 
368.135 
342.612 
327.547 
339.968 
364.046 
335.009 
311.828 
348.88 
326.862 
389.787 
333.246 
324.519 
379.612 
345.655 
363.323 
340.804 
333.083 
363.93 
327.89 
367.488 
329.107 
340.867 
339.717 
338.481 
333.284 
379.398 
371.268 
381.682 
368.937 
351.329 
345.64 
306.506 
330.637 
371.386 
318.452 
347.1 
363.647 
325.931 
362.118 
394.482 
374.73 
341.337 
338.134 
338.705 
325.782 
352.99 
348.963 
396.741 
324.962 
323.048 
377.435 
359.384 
353.81 
363.35 
350.307 
376.473 
339.094 
394.783 
391.231 
323.688 
378.742 
337.69 
349.126 
368.105 
335.428 
367.008 
332.591 
320.081 
346.257 
356.886 
361.432 
367.334 
357.687 
341.518 
345.628 
322.997 
363.376 
397.241 
341.798 
336.355 
353.991 
333.039 
333.678 
334.947 
343.906 
332.202 
367.708 
366.738 
352.526 
335.979 
330.007 
341.795 
351.951 
323.614 
353.188 
327.218 
361.981 
359.307 
353.937 
329.038 
390.095 
364.663 
368.872 
376.223 
365.186 
401.783 
353.251 
373.002 
406.168 
381.092 
367.577 
385.024 
381.949 
388.769 
399.539 
369.178 
370.218 
366.476 
407.83 
362.52 
412.145 
372.68 
343.711 
412.109 
385.861 
391.683 
405.569 
396.435 
395.524 
349.168 
394.019 
361.18 
404.846 
402.599 
393.169 
367.215 
340.163 
383.853 
380.245 
385.607 
409.506 
339.347 
393.089 
379.585 
381.451 
378.097 
379.886 
372.458 
392.701 
417.046 
348.252 
350.845 
381.813 
400.766 
379.617 
330.056 
404.281 
376.464 
340.946 
372.616 
364.211 
378.871 
393.41 
395.271 
392.397 
345.308 
362.183 
349.172 
362.265 
383.924 
378.294 
396.756 
416.291 
379.091 
347.161 
386.151 
435.778 
397.464 
450.092 
345.475 
393.639 
365.446 
411.362 
363.966 
334.52 
418.956 
352.396 
377.927 
340.459 
360.641 
373.565 
377.515 
361.835 
342.881 
410.51 
362.478 
364.575 
354.943 
403.531 
361.154 
336.83 
350.422 
409.061 
391.918 
348.774 
357.532 
401.524 
374.651 
386.433 
383.289 
379.299 
427.648 
345.186 
383.812 
348.539 
359.611 
353.332 
390.429 
362.844 
371.986 
354.783 
410.042 
365.11 
391.161 
351.084 
377.709 
359.407 
386.005 
384.231 
413.503 
404.218 
431.999 
370.028 
383.94 
372.729 
339.08 
376.456 
377.012 
357.708 
395.799 
381.566 
386.015 
358.257 
351.751 
374.376 
380.197 
333.233 
411.822 
357.53 
391.498 
416.248 
409.169 
420.203 
464.395 
422.818 
382.888 
451.366 
417.607 
372.526 
455.754 
447.866 
409.004 
374.554 
395.831 
420.942 
324.283 
372.913 
394.392 
414.668 
359.593 
397.216 
385.596 
437.041 
394.707 
419.653 
395.072 
435.23 
425.176 
417.073 
399.723 
369.694 
415.478 
409.094 
369.277 
396.161 
391.387 
415.175 
421.328 
367.302 
401.967 
413.576 
430.902 
439.296 
393.656 
382.33 
344.889 
386.169 
384.219 
394.188 
397.192 
359.832 
405.193 
412.583 
394.388 
436.939 
413.19 
389.397 
383.499 
429.051 
366.569 
409.858 
394.494 
384.431 
373.335 
432 
397.64 
403.079 
414.164 
382.066 
401.972 
409.237 
490.446 
389.58 
423.481 
416.507 
404.841 
391.285 
413.736 
409.791 
398.342 
459.899 
399.747 
411.213 
378.54 
365.37 
406.785 
379.163 
427.607 
403.763 
469.014 
389.603 
447.272 
362.487 
377.45 
397.254 
368.264 
425.361 
458.962 
400.74 
465.576 
382.469 
385.579 
401.163 
452.876 
420.878 
448.22 
420.927 
421.906 
435.93 
431.389 
394.917 
424.711 
406.979 
400.639 
450.936 
424.395 
411.417 
451.597 
400.62 
447.748 
432.517 
380.05 
414.104 
426.6 
428.592 
450.398 
422.704 
483.887 
425.285 
435.174 
381.505 
446.774 
436.997 
386.783 
399.363 
384.926 
358.199 
428.911 
395.875 
400.499 
419.012 
425.592 
409.673 
402.726 
391.257 
389.894 
440.557 
411.065 
410.637 
375.822 
413.566 
475.264 
432.151 
471.769 
448.756 
431.334 
459.346 
421.209 
422.868 
405.018 
445.949 
388.702 
433.777 
426.368 
479.415 
442.767 
418.839 
441.282 
453.247 
391.401 
370.996 
422.937 
433.935 
433.14 
426.106 
429.605 
427.81 
485.949 
455.49 
412.048 
456.794 
452.055 
450.994 
464.368 
454.46 
479.09 
464.654 
457.719 
455.884 
472.997 
438.581 
469.369 
482.913 
458.092 
452.245 
450.496 
447.048 
489.421 
409.771 
457.166 
384.448 
449.457 
417.389 
497.431 
479.718 
474.268 
389.199 
469.607 
432.693 
458.956 
471.223 
451.807 
426.331 
494.25 
446.474 
456.332 
403.476 
505.568 
441.604 
554.637 
483.138 
478.964 
519.322 
498.002 
393.869 
431.455 
513.144 
447.789 
435.239 
445.046 
443.622 
465.25 
477.458 
468.379 
426.53 
389.603 
435.529 
430.462 
437.922 
462.396 
453.162 
473.274 
401.855 
426.636 
428.75 
446.067 
445.678 
424.116 
422.39 
404.675 
461.351 
450.832 
478.901 
449.967 
458.274 
459.345 
423.535 
458.406 
478.699 
452.616 
372.138 
419.714 
448.259 
452.117 
374.196 
391.692 
414.154 
461.796 
448.961 
416.914 
483.186 
476.264 
467.192 
417.06 
432.651 
472.043 
498.917 
398.835 
490.961 
456.303 
406.466 
405.911 
480.097 
407.539 
434.203 
457.095 
432.852 
423.219 
409.214 
433.065 
486.963 
481.125 
487.876 
483.089 
510.206 
496.601 
466.278 
500.389 
446.082 
465.583 
463.708 
397.165 
426.962 
518.202 
421.906 
468.298 
463.104 
463.309 
505.776 
489.459 
409.86 
441.798 
485.54 
453.785 
487.263 
423.166 
398.773 
453.043 
438.565 
406.861 
472.884 
497.883 
504.965 
489.658 
480.488 
476.463 
485.664 
486.848 
456.434 
524.669 
463.283 
468.075 
453.525 
421.654 
445.758 
484.523 
481.022 
448.977 
427.123 
430.355 
474.609 
456.333 
414.56 
465.083 
451.47 
511.358 
478.492 
481.83 
493.687 
460.466 
444.025 
477.046 
448.685 
409.583 
507.292 
433.056 
456.572 
407.085 
459.363 
459.281 
523.095 
448.441 
427.879 
429.63 
421.418 
462.695 
439.54 
534.44 
438.26 
471.41 
460.34 
479.369 
556.769 
434.04 
492.963 
470.922 
487.256 
425.747 
508.99 
466.547 
485.076 
478.156 
425.844 
416.335 
438.865 
561.641 
446.282 
463.53 
506.071 
465.709 
555.16 
479.688 
449.039 
411.867 
484.363 
453.967 
430.671 
452.114 
431.985 
497.424 
484.89 
463.096 
534.169 
497.141 
484.285 
490.535 
452.274 
456.587 
472.572 
443.093 
537.541 
450.907 
439.051 
508.166 
486.053 
441.84 
606.022 
508.372 
510.245 
440.531 
484.584 
473.571 
483.586 
511.66 
504.891 
452.289 
528.272 
482.214 
427.928 
488.507 
436.007 
489.355 
469.122 
456.946 
483.307 
432.992 
438.326 
525.563 
567.776 
530.927 
466.52 
476.578 
533.952 
482.956 
411.973 
522.086 
486.565 
511.474 
469.304 
519.748 
494.104 
482.949 
516.477 
540.961 
475.409 
506.442 
449.895 
533.708 
517.218 
521.796 
498.394 
544.682 
503.628 
516.763 
513.178 
530.957 
583.295 
524.434 
453.806 
519.739 
469.298 
448.574 
478.618 
480.399 
464.659 
444.249 
479.818 
490.372 
470.163 
511.956 
500.102 
594.372 
470.459 
540.235 
447.612 
486.216 
524.624 
482.167 
511.717 
511.764 
444.115 
442.853 
442.602 
490.389 
508.757 
582.883 
511.639 
495.628 
469.653 
530.488 
490.883 
517.777 
499.681 
432.254 
495.656 
542.505 
532.86 
491.46 
470.88 
535.536 
488.52 
544.954 
498.823 
518.247 
513.352 
584.066 
487.496 
494.993 
498.572 
516.882 
463.012 
507.87 
