ITEM: TIMESTEP
7700000
ITEM: NUMBER OF CELLS
1000
ITEM: BOX BOUNDS ss rr pp
0 0.004
0 0.01
-0.5 0.5
ITEM: CELLS f_temp1[*] 
296.561 
310.079 
312.176 
302.305 
291.218 
290.25 
297.739 
314.643 
277.912 
320.833 
294.941 
303.772 
300.25 
283.646 
314.937 
301.157 
272.906 
279.208 
293.499 
241.896 
321.535 
280.794 
315.699 
298.612 
333.63 
287.872 
332.137 
310.971 
301.571 
325.751 
311.841 
307.595 
305.776 
293.566 
328.036 
297.52 
299.439 
309.81 
319.637 
304.578 
368.207 
322.763 
324.074 
349.444 
324.991 
291.414 
353.644 
331.816 
363.889 
341.383 
319.08 
308.831 
308.901 
287.413 
345.961 
297.829 
310.323 
310.898 
302.235 
342.82 
327.269 
310.225 
283.25 
301.401 
277.642 
310.569 
304.371 
357.85 
374.021 
317.654 
310.803 
290.422 
310.566 
309.994 
326.008 
341.948 
321.022 
361.384 
312.212 
312.759 
327.134 
330.65 
342.229 
344.966 
295.199 
324.562 
307.067 
312.257 
308.147 
328.282 
311.081 
337.109 
371.787 
280.264 
306.255 
352.791 
326.645 
347.812 
360.995 
368.916 
371.108 
362.94 
344.123 
343.358 
379.705 
349.954 
354.713 
349.179 
352.202 
338.14 
335.182 
367.028 
392.345 
337.63 
381.306 
352.068 
338.107 
306.019 
333.509 
332.932 
314.438 
341.833 
348.342 
315.376 
296.802 
308.667 
324.954 
311.985 
312.459 
319.28 
326.709 
314.712 
323.299 
310.109 
357.564 
356.035 
325.999 
349.863 
327.288 
295.555 
343.46 
310.863 
319.115 
322.398 
300.877 
323.364 
349.217 
314.766 
309.447 
308.566 
328.99 
329.173 
350.579 
321.065 
325.935 
323.437 
350.723 
344.719 
335.047 
374.573 
314.861 
387.127 
340.374 
344.894 
358.791 
331.624 
311.104 
341.214 
350.385 
346.996 
317.565 
335.012 
308.922 
345.731 
322.12 
380.264 
338.217 
337.591 
352.795 
324.293 
356.629 
328.693 
371.003 
344.985 
352.18 
344.265 
280.639 
334.05 
369.466 
331.447 
365.212 
292.394 
328.828 
319.749 
349.866 
339.705 
342.072 
331.37 
351.616 
335.697 
360.039 
422.982 
355.32 
385.574 
346.425 
329.711 
345.755 
349.679 
308.62 
338.36 
367.237 
345.249 
328.184 
343.144 
361.694 
334.121 
354.077 
365.304 
396.601 
360.15 
331.149 
383.516 
298.336 
338.037 
372.687 
335.05 
361.891 
347.114 
336.186 
360.979 
352.858 
337.34 
350.722 
384.859 
267.012 
318.545 
333.898 
332.779 
329.905 
313.883 
367.243 
337.54 
345.362 
357.896 
340.187 
329.58 
360.502 
330.904 
304.397 
353.555 
332.01 
329.634 
305.205 
351.725 
370.382 
328.769 
397.179 
350.8 
315.852 
352.487 
342.161 
302.03 
376.276 
373.619 
337.305 
372.681 
365.329 
330.957 
373.962 
368.737 
357.677 
348.601 
381.084 
305.273 
391.484 
364.299 
357.472 
329.82 
343.057 
342.247 
352.117 
376.54 
328.686 
384.37 
365.568 
326.853 
364.612 
354.801 
322.989 
350.159 
369.85 
380.641 
378.165 
293.268 
376.93 
351.749 
419.303 
341.023 
376.932 
416.277 
386.57 
364.554 
389.501 
414.147 
417.892 
361.436 
340.166 
373.915 
391.985 
373.406 
398.484 
341.065 
365.01 
398.494 
343.513 
399.545 
390.609 
375.125 
388.152 
370.968 
368.863 
354.769 
383.002 
415.009 
347.113 
406.532 
391.961 
378.336 
380.452 
354.34 
335.132 
369.478 
371.231 
390.855 
368.529 
330.623 
363.844 
323.404 
398.537 
412.79 
366.471 
361.122 
362.176 
344.722 
367.976 
336.626 
342.003 
350.929 
369.459 
371.956 
384.348 
386.907 
380.438 
342.058 
377.565 
389.907 
389.417 
384.398 
375.44 
393.141 
353.266 
386.476 
365.603 
359.146 
389.14 
350.664 
399.361 
376.782 
412.201 
412.454 
378.72 
343.026 
347.459 
420.419 
376.059 
376.233 
318.434 
421.885 
401.208 
387.57 
380.044 
374.283 
416.696 
406.48 
401.755 
394.579 
437.261 
413.679 
451.669 
415.782 
376.415 
409.007 
360.813 
378.048 
392.59 
388.679 
374.678 
349.71 
361.898 
387.757 
426.935 
413.243 
411.472 
422.857 
408.905 
399.086 
365.744 
389.426 
368.49 
376.826 
354.359 
369.507 
409.631 
403.231 
415.088 
396.667 
397.983 
349.035 
383.684 
354.595 
417.969 
358.883 
340.428 
367.481 
393.685 
372.19 
356.783 
374.653 
362.355 
379.751 
380.536 
413.673 
417.932 
384.353 
402.161 
390.054 
397.836 
428.137 
382.559 
461.394 
394.941 
406.142 
421.837 
417.302 
437.659 
396.65 
375.751 
404.67 
363.335 
401.588 
388.155 
395.824 
364.861 
360.89 
437.456 
457.583 
408.124 
366.435 
410.595 
402.217 
453.548 
416.964 
420.465 
414.847 
408.997 
434.214 
377.931 
440.217 
406.067 
437.319 
441.748 
379.08 
420.209 
388.979 
452.854 
440.733 
396.72 
438.126 
411.806 
459.133 
455.097 
442.501 
413.891 
435.681 
460.024 
415.964 
448.711 
463.371 
479.065 
459.444 
417.879 
455.715 
394.416 
421.317 
496.746 
441.644 
418.923 
442.259 
452.209 
383.214 
436.321 
446.503 
412.93 
403.649 
431.398 
416.041 
406.891 
379.88 
486.387 
443.941 
439.263 
403.096 
438.689 
399.977 
418.97 
434.914 
405.208 
425.175 
455.709 
369.317 
446.222 
413.722 
441.758 
422.253 
398.189 
395.375 
373.729 
406.633 
350.002 
417.867 
400.225 
420.338 
426.633 
397.785 
407.226 
416.474 
418.908 
362.473 
452.63 
370.431 
434.859 
397.655 
432.869 
348.066 
374.886 
462.888 
384.321 
440.563 
409.013 
420.323 
394.444 
441.562 
452.837 
462.627 
395.559 
432.734 
389.789 
439.592 
426.497 
412.835 
464.902 
447.224 
446.925 
456.778 
390.529 
454.645 
435.259 
436.969 
406.811 
399.799 
405.187 
440.138 
458.776 
434.598 
421.509 
435.576 
485.539 
503.718 
485.294 
434.345 
424.539 
476.674 
448.61 
412.8 
438.906 
375.788 
407.422 
393.672 
402.899 
386.083 
455.52 
435.07 
398.666 
465.131 
430.94 
402.68 
458.202 
471.021 
490.501 
435.088 
388.726 
429.9 
428.063 
449.199 
407.164 
470.501 
431.602 
426.08 
454.818 
446.692 
439.954 
480.508 
530.537 
418.053 
434.405 
460.798 
450.682 
434.043 
467.001 
444.014 
395.1 
433.16 
449.963 
436.31 
505.602 
422.349 
462.47 
434.963 
473.189 
413.762 
476.463 
468.954 
498.49 
457.006 
425.793 
479.01 
481.863 
498.459 
460.825 
508.065 
440.441 
456.456 
454.708 
466.536 
490.595 
440.068 
449.428 
470.222 
474.802 
498.378 
519.319 
481.496 
475.384 
507.046 
459.659 
516.661 
476.041 
448.023 
452.594 
473.774 
419.17 
473.498 
444.77 
423.145 
511.338 
418.635 
436.506 
485.595 
504.223 
478.909 
527.242 
511.284 
414.429 
464.065 
457.352 
516.539 
464.325 
455.638 
486.329 
496.066 
486.252 
406.311 
415.258 
463.117 
453.476 
436.863 
433.59 
456.993 
448.135 
455.24 
444.964 
500.856 
426.047 
460.727 
452.355 
456.671 
455.446 
452.789 
454.349 
492.479 
411.818 
521.085 
445.138 
480.551 
488.711 
478.646 
455.848 
458.678 
481.857 
420.818 
404.342 
459.19 
472.086 
397.09 
447.21 
433.585 
434.884 
416.2 
427.208 
440.549 
396.382 
381.542 
406.238 
440.211 
453.288 
465.111 
414.484 
513.049 
475.27 
502.289 
461.263 
475.235 
440.3 
415.174 
465.043 
442.012 
411.839 
435.532 
448.078 
423.041 
467.448 
516.352 
405.453 
414.652 
513.887 
502.382 
495.688 
484.286 
471.828 
421.317 
510.42 
471.758 
426.286 
486.733 
460.742 
461.056 
515.36 
483.369 
433.263 
486.405 
504.013 
448.202 
475.54 
446.829 
506.444 
448.364 
458.122 
455.7 
492.089 
425.854 
466.722 
410.67 
463.363 
435.546 
455.713 
458.299 
489.73 
396.52 
461.949 
446.169 
400.851 
466.682 
441.88 
387.699 
540.023 
405.433 
452.667 
434.649 
411.978 
434.896 
409.514 
400.582 
523.012 
428.763 
466.822 
402.004 
471.88 
433.596 
504.66 
451.411 
509.905 
412.253 
502.987 
430.802 
516.504 
455.884 
454.626 
449.569 
536.788 
464.025 
515.41 
532.235 
455.541 
446.091 
519.971 
457.874 
450.967 
467.397 
462.842 
460.98 
483.651 
475.905 
498.247 
488.549 
447.937 
505.702 
447.67 
444.777 
432.115 
463.479 
450.191 
434.188 
483.826 
427.028 
433.646 
423.701 
453.895 
481.866 
441.717 
480.429 
535.446 
470.554 
500.999 
473.26 
553.199 
558.98 
545.819 
519.473 
575.934 
468.343 
507.13 
464.645 
471.576 
475.697 
520.693 
513.717 
457.369 
425.737 
488.754 
529.781 
566.853 
565.422 
492.417 
428.093 
417.602 
524.708 
487.925 
487.78 
454.163 
459.771 
449.625 
510.987 
521.327 
519.174 
509.496 
493.199 
495.04 
456.049 
458.727 
519.988 
485.106 
409.745 
411.84 
455.297 
444.685 
499.472 
548.327 
462.037 
507.257 
447.79 
463.321 
533.983 
544.467 
522.154 
436.502 
438.066 
497.107 
467.868 
409.152 
551.364 
506.649 
452.057 
421.748 
496.248 
492.258 
451.346 
509.176 
594.428 
499.999 
466.93 
490.467 
485.544 
519.885 
469.195 
407.968 
494.991 
437.307 
541.431 
517.088 
513.761 
610.396 
519.206 
415.969 
494.207 
573.298 
456.71 
470.587 
486.878 
512.88 
489.661 
558.077 
451.72 
514.779 
431.88 
520.302 
443.309 
492.412 
500.732 
519.788 
514.812 
436.285 
435.908 
573.158 
491.231 
452.243 
477.093 
513.247 
475.566 
453.765 
418.508 
460.357 
530.653 
476.767 
468.235 
459.366 
533.181 
445.894 
478.173 
500.129 
468.063 
471.781 
496.726 
417.489 
473.572 
493.94 
467.882 
438.389 
401.08 
478.53 
470.286 
411.343 
487.793 
478.624 
532.443 
483.081 
453.191 
432.406 
437.382 
428.826 
488.681 
493.959 
478.875 
509.453 
545.708 
490.301 
513.473 
427.717 
477.248 
464.152 
521.788 
486.543 
474.304 
560.799 
496.089 
505.268 
560.676 
466.569 
543.466 
533.887 
552.49 
