ITEM: TIMESTEP
2400000
ITEM: NUMBER OF CELLS
1000
ITEM: BOX BOUNDS ss rr pp
0 0.004
0 0.01
-0.5 0.5
ITEM: CELLS f_temp1[*] 
307.077 
316.558 
312.002 
337.676 
301.995 
323.35 
327.541 
318.749 
304.95 
272.212 
342.184 
326.63 
301.88 
318.505 
310.427 
323.768 
323.929 
300.788 
254.704 
341.436 
304.529 
310.028 
342.964 
344.238 
306.052 
289.616 
326.714 
319.921 
306.736 
291.338 
315.762 
309.345 
278.237 
329.556 
305.083 
345.277 
294.509 
321.744 
340.964 
311.674 
312.83 
317.352 
339.115 
358.843 
315.492 
313.138 
349.009 
297.767 
333.29 
313.013 
318.619 
314.157 
343.073 
310.907 
338.821 
365.182 
338.306 
315.719 
324.339 
306.522 
346.497 
333.808 
335.941 
304.419 
325.17 
318.058 
289.7 
344.924 
291.343 
336.975 
346.848 
325.62 
301.759 
291.791 
336.44 
325.323 
328.677 
311.48 
286.188 
318.664 
306.718 
294.152 
334.792 
299.334 
296.581 
327.464 
278.048 
348.525 
312.111 
293.154 
299.608 
310.113 
327.388 
297.031 
315.556 
335.251 
325.499 
304.674 
312.461 
310.277 
296.377 
333.549 
322.606 
320.092 
305.142 
318.422 
298.293 
310.288 
311.83 
334.717 
315.243 
312.284 
331.997 
354.086 
308.228 
335.073 
362.072 
343.1 
309.095 
333.762 
310.69 
312.538 
329.528 
337.968 
320.214 
318.686 
286.682 
333.375 
312.992 
319.139 
281.742 
354.386 
318.089 
344.463 
323.979 
322.114 
326.932 
330.55 
334.392 
339.005 
333.071 
331.67 
334.246 
323.643 
334.762 
353.373 
331.519 
302.57 
339.283 
328.447 
340.613 
382.319 
337.936 
302.415 
347.19 
300.135 
299.035 
307.809 
352.359 
361.123 
331.047 
321.535 
333.481 
320.96 
341.56 
328.217 
336.866 
345.821 
322.882 
305.551 
340.069 
357.811 
331.991 
360.998 
330.235 
353.651 
307.252 
349.335 
336.693 
311.074 
350.462 
349.116 
377.114 
333.159 
368.695 
388.429 
397.681 
371.293 
369.88 
339.755 
329.633 
329.235 
323.845 
389.945 
368.574 
381.679 
318.916 
387.881 
335.921 
322.193 
318.743 
326.095 
340.77 
359.8 
398.264 
426.298 
372.828 
351.928 
394.742 
398.412 
361.134 
349.733 
357.728 
320.163 
342.253 
330.511 
336.643 
326.045 
323.038 
345.488 
330.062 
363.992 
387.963 
366.723 
327.944 
343.329 
359.464 
342.503 
399.781 
342.452 
344.763 
350.349 
336.609 
295.438 
353.562 
346.641 
362.205 
330.049 
381.946 
319.803 
323.377 
379.557 
326.419 
340.645 
321.203 
317.116 
343.113 
350.972 
354.576 
381.212 
342.532 
346.932 
345.073 
381.89 
362.568 
365.763 
355.157 
393.35 
361.231 
375.133 
364.5 
312.161 
335.463 
348.855 
366.786 
344.4 
351.352 
374.813 
373.581 
378.528 
387.636 
348.176 
370.28 
377.501 
371.54 
361.199 
380.649 
385.563 
376.573 
386.096 
342.887 
387.238 
373.124 
337.146 
354.941 
381.091 
373.716 
341.484 
346.696 
321.426 
381.523 
360.769 
361.06 
357.371 
355.706 
333.489 
354.516 
341.009 
376.843 
362.283 
388.829 
362.643 
418.284 
368.744 
390.315 
366.621 
381.816 
391.424 
367.291 
353.116 
365.676 
369.573 
396.009 
373.841 
376.415 
330.815 
411.876 
395.29 
352.766 
384.984 
404.897 
360.311 
399.752 
488.133 
456.82 
398.278 
390.653 
332.411 
397.173 
438.952 
399.797 
377.837 
389.778 
402.86 
408.199 
455.714 
364.684 
414.38 
426.44 
440.981 
398.345 
412.012 
418.419 
366.96 
382.709 
403.999 
436.942 
342.71 
367.535 
346.009 
402.035 
408.923 
340.773 
387.924 
410 
416.202 
411.751 
395.068 
397.723 
399.71 
429.115 
397.566 
370.69 
331.502 
393.861 
380.359 
370.455 
400.522 
402.313 
393.96 
375.368 
332.028 
379.485 
354.565 
327.654 
389.417 
341.205 
320.374 
367.715 
373.615 
363.868 
342.692 
403.742 
339.781 
366.782 
368.777 
393.092 
393.582 
382.399 
414.439 
342.083 
401.232 
431.795 
393.257 
369.825 
424.436 
455.901 
425.406 
360.059 
345.512 
314.1 
367.869 
375.983 
376.821 
465.141 
374.827 
394.756 
360.326 
403.544 
305.3 
374.091 
389.693 
419.609 
399.431 
364.5 
350.508 
360.726 
383.631 
378.509 
330.526 
370.338 
373.985 
378.955 
380.444 
342.956 
353.949 
347.399 
386.902 
385.331 
375.86 
340.454 
401.166 
428.221 
394.912 
379.831 
378.893 
452.734 
360.039 
384.659 
475.632 
422.317 
382.42 
435.61 
411.352 
405.514 
369.322 
376.202 
397.434 
346.296 
375.46 
360.625 
426.826 
415.525 
382.518 
365.222 
436.439 
411.104 
401.806 
390.043 
392.006 
398.556 
405.799 
448.807 
393.697 
373.817 
392.039 
407.363 
369.405 
396.196 
422.83 
390.395 
455.795 
387.567 
388.018 
350.193 
430.289 
363.195 
386.507 
405.358 
413.231 
356.93 
424.361 
436.941 
420.434 
377.107 
411.585 
410.22 
421.333 
439.075 
388.323 
440.176 
397.195 
365.261 
367.332 
343.89 
382.323 
398.937 
349.026 
390.344 
464.227 
440.076 
392.623 
405.16 
381.357 
343.916 
408.981 
380.372 
380.866 
369.608 
395.379 
411.557 
356.226 
367.739 
383.32 
382.006 
423.923 
424.798 
392.971 
391.594 
379.004 
404.798 
397.874 
431.47 
417.561 
476.251 
472.02 
381.656 
404.77 
488.078 
433.628 
393.79 
400.263 
402.091 
466.921 
428.032 
452.628 
402.155 
420.2 
460.017 
432.144 
408.357 
466.891 
375.309 
405.177 
413.015 
442.431 
439.929 
435.744 
401.809 
473.389 
436.643 
410.805 
377.055 
388.587 
414.97 
457.004 
375.762 
391.428 
392.666 
450.898 
492.53 
410.946 
387.737 
444.453 
458.521 
400.189 
444.604 
437.205 
374.544 
417.467 
439.549 
433.173 
434.593 
439.064 
423.623 
487.466 
494.069 
493.618 
442.572 
440.924 
449.826 
434.699 
483.158 
517.932 
442.141 
431.127 
395.596 
418.562 
398.624 
460.958 
442.279 
419.737 
397.001 
446.521 
445.435 
417.469 
426.567 
416.277 
427.328 
458.28 
431.199 
446.27 
527.096 
451.043 
478.151 
433.782 
455.699 
457.69 
499.568 
444.495 
492.769 
409.777 
410.905 
445.277 
445.901 
446.028 
452.803 
432.498 
428.97 
412.874 
434.181 
484.175 
426.955 
407.146 
409.375 
473.486 
455.747 
450.198 
418.482 
457.977 
443.441 
428.501 
423.165 
434.461 
503.18 
450.837 
445.66 
427.017 
427.705 
398.798 
411.657 
493.841 
444.479 
445.351 
448.091 
409.404 
475.739 
464.087 
470.75 
436.597 
428.487 
422.721 
478.558 
428.915 
385.476 
485.592 
459.449 
455.965 
513.955 
458.516 
435.967 
421.179 
451.143 
407.023 
490.903 
495.612 
418.451 
549.727 
439.834 
452.037 
463.962 
486.129 
434.181 
443.107 
461.259 
491.772 
469.294 
435.792 
424.521 
518.543 
449.589 
414.664 
469.753 
495.414 
504.234 
489.741 
468.316 
444.191 
452.897 
401.391 
460.871 
460.664 
387.493 
403.205 
478.526 
437.777 
464.383 
506.48 
438.449 
443.895 
443.217 
457.038 
423.109 
378.859 
448.433 
419.65 
394.796 
428.998 
472.455 
396.701 
474.865 
443.834 
419.994 
438.295 
431.094 
456.875 
446.701 
448.637 
429.774 
463.921 
429.372 
488.609 
399.488 
472.525 
448.878 
462.075 
453.992 
477.637 
439.9 
543.802 
428.839 
413.341 
461.063 
516.622 
447.164 
447.501 
460.11 
461.247 
448.945 
456.454 
444.86 
406.654 
411.669 
450.182 
450.088 
436.612 
453.551 
461.383 
514.216 
443.044 
458.77 
467.33 
478.572 
454.324 
515.98 
441.281 
454.577 
476.588 
526.797 
461.707 
424.174 
422.654 
467.144 
489.254 
445.019 
515.828 
473.054 
438.177 
443.076 
516.866 
466.602 
464.92 
483.668 
456.881 
439.454 
436.252 
468.328 
430.509 
476.845 
444.974 
485.626 
414.341 
478.191 
406.913 
438.662 
433.873 
451.928 
485.772 
446.989 
413.626 
441.242 
474.39 
475.293 
412.809 
463.072 
416.719 
493.306 
523.53 
465.079 
469.064 
415.908 
434.399 
445.114 
454.062 
429.158 
471.646 
479.002 
479.372 
442.192 
410.855 
433.303 
500.342 
433.118 
482.644 
470.275 
447.278 
467.539 
417.965 
436.324 
503.558 
456.027 
473.055 
530.912 
424.183 
465.955 
481.037 
473.509 
483.043 
480.131 
427.29 
470.707 
391.247 
425.298 
444.52 
467.714 
415.926 
475.46 
477.237 
515.263 
515.407 
516.424 
426.921 
457.25 
412.743 
435.419 
454.501 
466.436 
469.108 
505.484 
447.453 
459.41 
418.504 
491.483 
448.952 
475.653 
497.809 
414.081 
489.601 
408.146 
438.075 
453.746 
433.953 
457.767 
441.025 
472.095 
486.706 
407.187 
416.564 
439.451 
370.914 
410.523 
468.626 
442.872 
479.618 
461.734 
496.361 
446.097 
450.629 
520.489 
516.653 
456.938 
504.931 
442.098 
426.496 
471.65 
407.19 
470.819 
425.972 
460.204 
447.332 
436.2 
370.014 
434.347 
409.228 
426.377 
480.787 
420.356 
450.452 
463.02 
529.191 
427.59 
494.942 
468.72 
458.512 
454.26 
484.626 
485.958 
481.295 
425.414 
473.487 
488.769 
474.185 
453.416 
524.053 
477.88 
461.907 
541.29 
465.396 
527.123 
427.564 
539.152 
454.215 
460.857 
399.424 
420.279 
431.532 
432.378 
457.578 
424.21 
453 
482.617 
582.752 
528.703 
508.718 
480.351 
481.936 
482.144 
476.583 
438.613 
569.08 
440.346 
444.74 
393.81 
473.138 
451.288 
475.118 
446.501 
506.579 
459.943 
525.064 
517.052 
503.503 
441.482 
512.877 
447.128 
477.366 
485.48 
486.261 
478.545 
476.164 
512.089 
506.9 
486.735 
413.311 
526.517 
470.302 
473.128 
485.434 
481.596 
522.214 
432.901 
456.072 
412.35 
448.573 
463.547 
547.239 
474.337 
474.821 
462.177 
543.46 
501.733 
565.663 
521.849 
504.427 
509.32 
460.294 
447.381 
481.838 
467.312 
496.491 
482.183 
455.557 
505.854 
503.023 
480.141 
462.156 
473.145 
481.695 
478.19 
543.786 
