ITEM: TIMESTEP
2200000
ITEM: NUMBER OF CELLS
1000
ITEM: BOX BOUNDS ss rr pp
0 0.004
0 0.01
-0.5 0.5
ITEM: CELLS f_temp1[*] 
294.488 
296.352 
365.517 
350.076 
340.539 
321.567 
294.944 
329.565 
293.58 
306.796 
262.091 
298.573 
309.634 
310.576 
337.306 
287.52 
322.096 
274.523 
317.294 
302.691 
285.487 
277.926 
262.433 
304.321 
306.735 
310.259 
297.202 
281.431 
309.832 
295.935 
310.594 
329.486 
315.584 
286.362 
302.795 
317.702 
289.136 
270.095 
279.986 
293.012 
262.71 
283.296 
284.152 
260.403 
279.466 
295.234 
260.271 
292.948 
320.74 
316.429 
303.945 
328.55 
305.418 
311.344 
301.896 
287.284 
316.102 
293.648 
320.687 
290.155 
297.31 
326.281 
301.862 
308.351 
300.926 
288.317 
310.754 
313.279 
326.996 
319.912 
322.79 
327.182 
328.37 
336.33 
307.098 
330.799 
292.444 
323.326 
348.188 
328.774 
336.232 
322.84 
330.376 
296.921 
309.152 
296.409 
275.329 
302.935 
295.407 
279.028 
341.422 
320.166 
333.297 
316.712 
289.169 
324.747 
358.236 
301.49 
308.139 
330.863 
314.668 
305.12 
325.217 
313.024 
308.526 
321.462 
323.391 
314.692 
341.98 
334.625 
348.093 
320.274 
318.715 
298.376 
314.572 
359.426 
345.227 
340.226 
334.039 
315.721 
370.663 
359.237 
313.568 
304.653 
342.789 
345.034 
327.718 
343.677 
331.689 
362.889 
328.218 
339.564 
325.33 
373.657 
353.757 
360.285 
371.022 
349.06 
330.904 
328.5 
336.367 
322.418 
327.724 
340.876 
343.694 
371.472 
315.008 
327.203 
314.242 
327.233 
355.225 
320.93 
315.445 
320.077 
325.2 
303.11 
336.821 
352.568 
311.131 
331.801 
317.735 
327.007 
329.995 
307.664 
310.372 
309.61 
326.857 
302.452 
325.089 
316.234 
323.208 
315.651 
340.15 
330.352 
311.01 
339.288 
300.253 
330.129 
347.426 
326.558 
304.535 
335.054 
314.119 
332.022 
303.807 
332.515 
319.195 
335.561 
347.662 
367.236 
317.769 
309.843 
318.564 
356.693 
346.891 
359.616 
332.065 
359.088 
329.344 
321.22 
361.025 
358.548 
345.965 
322.524 
324.272 
345.908 
373.524 
342.658 
373.167 
379.988 
342.011 
356.948 
301.838 
308.151 
341.648 
347.588 
358.489 
344.293 
324.314 
320.501 
327.144 
371.302 
331.17 
332.338 
316.603 
322.35 
315.835 
363.619 
362.39 
346.632 
370.783 
361.853 
368.985 
359.361 
349.712 
360.269 
360.953 
380.874 
317.061 
379.679 
388.31 
364.932 
332.647 
360.154 
371.939 
385.203 
376.97 
351.762 
408.376 
336.43 
339.465 
352.912 
363.388 
400.68 
354.882 
340.321 
342.308 
309.932 
357.453 
344.725 
348.033 
393.094 
378.581 
347.81 
375.486 
372.854 
345.57 
390.971 
355.844 
354.589 
332.057 
379.926 
360.775 
354.683 
336.955 
388.726 
403.208 
329.19 
363.813 
345.768 
366.756 
344.377 
380.304 
329.155 
345.78 
372.699 
342.352 
358.346 
365.74 
343.993 
385.656 
361.722 
318.232 
365.519 
390.557 
348.134 
359.759 
398.593 
418.705 
355.139 
326.518 
363.755 
379.985 
386.237 
359.029 
402.164 
378.849 
377.61 
424.224 
415.37 
363.76 
368.013 
388.87 
392.838 
410.167 
392.063 
396.271 
398.426 
368.598 
358.019 
374.591 
351.053 
347.974 
416.939 
384.24 
336.193 
359.293 
420.821 
376.341 
321.199 
373.756 
392.485 
338.688 
359.718 
439.65 
366.724 
377.481 
401.815 
369.503 
411.584 
368.613 
357.298 
369.303 
398.852 
382.396 
436.04 
356.675 
410.636 
376.448 
379.025 
431.1 
383.941 
416.428 
364.021 
343.845 
355.166 
381.46 
362.606 
355.729 
373.741 
335.134 
392.212 
362.856 
387.17 
420.423 
363.291 
386.232 
429.716 
415.315 
354.099 
418.801 
417.606 
398.883 
413.613 
446.877 
405.236 
375.27 
417.686 
409.288 
374.587 
403.258 
395.213 
338.072 
400.341 
400.724 
418.55 
337.893 
421.86 
409.68 
382.454 
408.312 
389.985 
412.023 
388.175 
399.662 
417.193 
358.663 
410.238 
387.717 
416.119 
381.843 
394.142 
352.776 
394.368 
415.136 
414.071 
367.86 
392.248 
474.552 
395.95 
467.924 
415.148 
422.155 
426.391 
433.214 
403.476 
394.612 
404.642 
420.837 
408.061 
431.541 
405.503 
449.181 
410.804 
401.676 
388.921 
399.263 
393.538 
379.816 
384.399 
404.498 
403.917 
386.926 
397.952 
377.093 
417.799 
413.613 
407.926 
392.442 
418.302 
448.068 
415.638 
482.439 
405.848 
436.371 
394.78 
424.98 
390.476 
415.706 
385.778 
434.162 
388.068 
394.721 
411.836 
378.867 
377.706 
392.139 
384.808 
414.125 
386.823 
405.725 
383.968 
410.105 
379.709 
426.604 
422.994 
383.37 
407.562 
375.389 
469.961 
426.94 
377.397 
382.815 
398.458 
403.208 
411.29 
404.304 
411.268 
397.494 
409.438 
437.568 
385.588 
381.729 
427.231 
339.894 
354.22 
440.65 
416.478 
432.756 
421.992 
436.62 
411.537 
387.368 
401.649 
389.587 
433.959 
363.845 
437.475 
378.871 
406.231 
454.497 
445.932 
385.616 
422.749 
459.649 
466.052 
402.903 
399.208 
442.538 
404.526 
442.248 
375.385 
403.44 
384.884 
482.162 
393.22 
410.615 
395.242 
423.247 
415.172 
392.393 
384.31 
424.168 
402.284 
392.444 
429.311 
421.311 
368.561 
371.971 
369.815 
379.391 
390.081 
416.25 
420.78 
488.505 
429.013 
373.89 
373.483 
389.978 
376.536 
414.89 
398.945 
477.347 
395.759 
430.627 
418.19 
414.972 
408.896 
387.148 
390.05 
430.311 
440.383 
441.636 
393.257 
442.231 
438.794 
418.033 
384.755 
449.418 
421.567 
439.354 
384.02 
390.715 
403.042 
434.372 
462.387 
467.601 
452.173 
453.332 
471.64 
449.097 
476.615 
455.669 
410.668 
461.066 
433.716 
425.937 
438.346 
402.08 
421.179 
392.535 
403.94 
411.792 
396.566 
382.387 
428.408 
432.37 
475.237 
414.81 
390.695 
419.838 
476.901 
463.63 
378.487 
459.079 
415.385 
431.29 
399.945 
416.124 
402.17 
436.284 
436.819 
420.613 
420.126 
426.298 
373.299 
428.414 
421.345 
415.893 
441.538 
370.907 
422.794 
471.203 
427.365 
436.658 
386.313 
423.217 
452.357 
380.608 
405.554 
425.959 
441.122 
421.015 
451.537 
372.658 
427.848 
450.079 
390.485 
429.305 
474.671 
442.769 
408.409 
422.469 
433.323 
412.083 
390.828 
449.374 
434.753 
435.44 
377.06 
425.691 
419.007 
438.102 
423.742 
399.55 
461.606 
459.469 
417.657 
459.793 
433.973 
444.101 
428.423 
437.023 
367.523 
454.114 
385.652 
491.417 
397.538 
415.575 
496.178 
467.774 
396.315 
465.508 
494.567 
455.766 
559.191 
437.912 
427.322 
440.67 
491.046 
459.845 
451.216 
398.888 
493.594 
412.679 
526.908 
418.575 
495.62 
471.994 
413.957 
406.981 
412.167 
489.382 
419.984 
486.756 
445.749 
465.646 
434.157 
547.833 
407.817 
470.673 
470.052 
413.82 
442.654 
513.394 
416.823 
406.462 
502.355 
430.712 
457.722 
406.053 
390.667 
435.505 
434.21 
444.869 
428.058 
473.094 
448.956 
465.802 
411.588 
452.991 
416.497 
450.224 
451.135 
398.039 
459.46 
381.487 
436.622 
455.623 
379.739 
397.047 
470.141 
400.86 
433.952 
427.048 
457.214 
471.942 
496.893 
431.04 
451.771 
421.498 
461.392 
399.555 
439.014 
448.353 
456.389 
433.129 
400.824 
503.079 
468.162 
489.188 
404.774 
459.703 
420.298 
430.916 
425.715 
414.788 
405.858 
412.377 
497.361 
448.402 
481.357 
508.963 
431.407 
460.763 
510.32 
497.599 
433.925 
456.863 
465.146 
488.176 
436.618 
383.092 
441.969 
434.431 
544.097 
467.466 
464.536 
407.206 
470.644 
476.933 
432.005 
431.393 
513.37 
548.04 
493.581 
444.041 
495.271 
418.958 
432.571 
458.156 
444.297 
489.141 
416.311 
442.958 
376.388 
416.823 
467.395 
422.191 
484.55 
426.181 
443.443 
472.125 
452.794 
456.71 
485.951 
438.694 
518.405 
494.035 
461.904 
438.409 
453.055 
459.065 
432.891 
492.985 
470.725 
531.736 
405.345 
477.7 
464.015 
472.017 
485.723 
428.131 
440.938 
511.372 
555.879 
470.631 
459.938 
486.08 
444.009 
457.667 
472.027 
489.534 
483.195 
471.029 
443.147 
466.765 
484.283 
507.116 
458.589 
490.77 
495.419 
451.688 
477.794 
451.138 
470.946 
416.05 
512.081 
498.203 
424.26 
449.881 
478.041 
479.508 
519.325 
449.69 
477.835 
460.687 
498.313 
406.332 
434.712 
462.843 
476.505 
509.806 
401.627 
500.23 
447.623 
462.492 
585.213 
436.348 
493.617 
490.544 
531.738 
442.159 
448.892 
479.02 
482.174 
521.399 
513.398 
457.606 
483.187 
488.246 
467.194 
480.026 
541.443 
513.579 
541.903 
493.717 
548.209 
457.768 
524.834 
446.694 
518.457 
481.938 
528.358 
472.31 
431.848 
539.958 
513.437 
439.996 
505.698 
424.829 
482.862 
418.869 
475.926 
435.761 
513.323 
504.443 
448.799 
426.803 
539.186 
477.744 
518.963 
538.495 
539.486 
488.303 
516.449 
499.918 
480.394 
454.627 
566.648 
462.469 
482.205 
493.706 
545.987 
534.365 
500.518 
512.527 
526.475 
502.265 
468.414 
489.449 
541.191 
430.419 
496.715 
450.567 
502.27 
492.225 
439.917 
508.865 
483.157 
461.981 
504.787 
498.609 
458.99 
524.593 
458.825 
521.509 
522.407 
458.533 
499.885 
531.055 
472.413 
466.525 
518.579 
483.894 
476.734 
460.923 
437.469 
457.902 
496.933 
499.848 
479.904 
452.92 
487.444 
455.885 
555.457 
500.15 
526.286 
475.37 
482.336 
454.663 
467.37 
441.036 
503.014 
483.253 
498.65 
563.791 
518.211 
483.504 
442.689 
552.219 
483.792 
497.585 
404.513 
471.844 
466.334 
460.039 
499.744 
498.283 
493.469 
552.714 
526.534 
493.944 
609.368 
571.236 
540.08 
569.274 
509.459 
586.698 
630.417 
455.161 
488.073 
537.72 
456.041 
525.642 
465.042 
580.43 
545.138 
529.632 
510.224 
