ITEM: TIMESTEP
3600000
ITEM: NUMBER OF CELLS
1000
ITEM: BOX BOUNDS ss rr pp
0 0.004
0 0.01
-0.5 0.5
ITEM: CELLS f_temp1[*] 
304.831 
290.716 
276.976 
305.348 
311.978 
288.598 
285.479 
286.847 
319.544 
284.127 
280.927 
284.165 
304.455 
316.15 
313.44 
287.986 
290.694 
303.657 
298.888 
321.444 
321.31 
344.267 
294.173 
315.738 
309.341 
314.851 
309.38 
309.763 
351.035 
305.885 
310.446 
300.548 
283.914 
316.007 
325.233 
275.442 
259.072 
303.88 
296.858 
321.526 
337.564 
334.145 
326.193 
326.635 
337.889 
295.199 
299.077 
315.88 
324.245 
344.66 
317.451 
322.427 
300.054 
320.299 
288.936 
337.649 
323.647 
315.922 
343.659 
296.893 
303.302 
354.31 
347.051 
316.168 
339.593 
287.797 
335.11 
305.244 
308.549 
310.715 
350.314 
305.211 
319.391 
307.214 
302.252 
311.96 
347.681 
298.13 
313.004 
343.915 
344.305 
287.337 
324.267 
325.891 
342.16 
337.174 
357.132 
321.48 
330.513 
310.06 
319.366 
304.809 
305.85 
342.248 
317.523 
301.529 
292.328 
307.602 
292.925 
334.499 
316.184 
324.03 
304.46 
319.733 
336.395 
349.891 
315.297 
314.938 
344.379 
319.325 
296.617 
349.477 
346.877 
345.304 
335.737 
337.383 
294.923 
332.354 
330.487 
319.287 
297.563 
334.094 
326.906 
338.33 
348.976 
332.688 
322.444 
356.191 
341.733 
342.052 
332.489 
349.748 
324.199 
362.181 
349.569 
357.113 
320.418 
327.654 
331.87 
306.093 
323.95 
363.797 
385.56 
362.047 
383.212 
325.084 
326.871 
301.787 
343.967 
377.733 
355.686 
348.528 
279.077 
340.297 
319.079 
348.071 
341.304 
339.594 
319.956 
330.235 
291.012 
343.837 
328.018 
311.159 
342.875 
295.536 
354.289 
335.679 
338.049 
335.18 
373.26 
307.063 
360.631 
345.018 
385.765 
335.545 
336.507 
363.293 
352.692 
333.74 
381.169 
340.633 
344.43 
315.078 
343.326 
350.863 
347.431 
331.738 
346.009 
323.071 
346.149 
370.409 
345.733 
363.969 
333.659 
318.297 
324.666 
314.538 
337.04 
319.291 
321.379 
330.778 
310.893 
345.704 
346.565 
342.862 
349.641 
340.241 
296.395 
356.218 
354.196 
340.176 
360.776 
307.222 
321.824 
326.878 
299.173 
345.662 
340.089 
326.247 
348.772 
320.878 
334.395 
352.16 
400.772 
357.977 
331.046 
402.765 
356.46 
394.55 
372.69 
383.751 
331.169 
356.543 
386.948 
339.791 
416.178 
334.835 
370.024 
352.769 
360.386 
404.501 
374.511 
390.854 
391.298 
372.981 
343.26 
355.069 
354.438 
381.351 
381 
363.594 
400.141 
366.964 
382.042 
381.589 
343.73 
415.235 
362.405 
364.798 
382.515 
325.176 
362.92 
354.802 
369.556 
384.753 
361.671 
399.313 
370.989 
338.745 
365.2 
371.462 
402.947 
424.398 
370.789 
392.82 
411.428 
423.879 
370.874 
385.019 
409.465 
409.986 
390.582 
393.137 
366.581 
368.423 
360.428 
356.298 
359.785 
395.315 
381.59 
353.66 
408.878 
346.69 
393.242 
368.911 
387.681 
332.809 
380.969 
395.922 
345.779 
369.112 
332.611 
383.54 
378.258 
383.968 
384.646 
351.154 
368.491 
373.058 
379.981 
363.044 
363.575 
359.883 
416.848 
397.573 
351.311 
347.268 
381.281 
339.932 
366.202 
339.448 
375.377 
367.503 
426.305 
345.467 
395.844 
403.086 
368.903 
391.816 
360.851 
396.259 
368.473 
330.102 
358.196 
376.92 
343.041 
353.454 
350.856 
416.5 
413.485 
396.496 
400.92 
411.993 
389.235 
431.067 
389.141 
376.414 
373.274 
360.704 
396.119 
398.14 
398.754 
394.957 
380.481 
386.042 
325.082 
365.803 
342.567 
367.592 
337.47 
382.496 
417.048 
394.35 
397.518 
383.034 
387.719 
404.281 
350.722 
432.599 
372.419 
380.256 
424.21 
394.185 
400.378 
401.682 
427.758 
385.339 
408.702 
377.707 
399.937 
367.767 
436.407 
381.212 
393.819 
378.082 
377.142 
387.225 
379.207 
393.952 
396.762 
369.294 
416.849 
400.794 
372.25 
334.912 
388.366 
360.482 
415.913 
369.777 
435.606 
378.818 
407.211 
385.436 
392.959 
376.808 
392.881 
345.211 
352.927 
405.777 
395.683 
369.657 
399.014 
393.931 
403.202 
407.151 
386.547 
388.857 
380.864 
385.682 
351.674 
420.155 
353.496 
381.883 
357.238 
414.981 
426.384 
376.415 
408.504 
425.697 
382.909 
399.692 
406.965 
340.322 
392.617 
433.51 
465.382 
374.315 
416.502 
407.355 
407.642 
409.713 
435.94 
358.63 
431.247 
351.677 
322.179 
395.507 
413.542 
440.132 
401.952 
400.913 
392.243 
371.484 
427.103 
428.601 
393.796 
417.055 
440.265 
402.929 
406.278 
372.935 
388.209 
409.063 
411.323 
345.823 
375.342 
414.959 
480.501 
383.102 
413.381 
409.051 
469.384 
406.069 
440.372 
439.867 
390.121 
413.279 
401.899 
395.35 
429.489 
409.806 
415.929 
362.949 
343.552 
415.133 
391.529 
385.872 
360.393 
443.926 
392.578 
407.461 
390.206 
404.308 
427.612 
428.085 
426.097 
422.644 
372.745 
403.788 
410.633 
423.559 
419.576 
386.501 
375.729 
410.664 
420.34 
393.178 
355.452 
383.149 
424.937 
434.067 
397.345 
392.889 
419.905 
425.603 
409.341 
417.522 
420.315 
402.745 
448.264 
413.39 
380.675 
436.26 
385.702 
407.816 
452.677 
447.906 
370.02 
360.377 
414.01 
381.768 
407.764 
407.43 
418.231 
401.718 
379.174 
394.864 
386.428 
402.563 
372.068 
396.131 
401.65 
369.239 
419.086 
433.648 
438.292 
340.339 
402.346 
393.37 
387.259 
416.304 
378.333 
343.127 
467.793 
381.218 
412.77 
423.751 
453.838 
380.089 
355.221 
456.55 
388.314 
397.629 
418.891 
405.697 
424.617 
443.652 
384.852 
435.339 
420.473 
413.506 
450.372 
418.172 
413.992 
398.947 
412.836 
413.725 
411.096 
488.111 
393.114 
421.862 
379.525 
451.75 
388.445 
400.906 
432.342 
410.438 
439.293 
469.172 
426.429 
456.606 
418.271 
406.224 
422.525 
442.668 
399.759 
442.597 
416.04 
400.617 
448.787 
387.342 
495.598 
452.924 
420.756 
446.224 
457.282 
439.488 
414.168 
429.763 
421.994 
401.266 
443.568 
426.808 
426.143 
413.166 
459.061 
447.537 
417.56 
403.97 
427.917 
424.249 
411.209 
463.601 
424.678 
489.762 
424.124 
461.012 
444.231 
385.944 
425.48 
420.868 
475.73 
477.773 
446.125 
467.457 
442.257 
403.451 
427.579 
484.363 
460.507 
417.788 
432.603 
430.71 
420.962 
414.773 
455.47 
429.912 
456.985 
437.076 
441.712 
439.617 
432.555 
431.886 
406.941 
460.16 
357.05 
475.646 
443.342 
496.834 
396.89 
469.926 
443.365 
422.704 
449.675 
451.252 
522.1 
373.713 
468.943 
400.841 
446.105 
458.666 
428.409 
409.265 
440.954 
482.466 
411.607 
463.824 
427.663 
437.34 
483.817 
412.473 
449.316 
378.123 
380.61 
390.458 
472.791 
427.059 
471.683 
430.936 
407.286 
418.196 
435.502 
500.251 
524.857 
450.151 
474.759 
491.941 
432.329 
440.686 
438.597 
440.531 
450.566 
423.697 
443.369 
512.378 
428.833 
434.161 
435.048 
422.335 
441.195 
491.955 
426.744 
484.566 
405.442 
422.006 
468.992 
447.49 
476.447 
470.472 
418.717 
518.045 
474.033 
520.345 
479.322 
444.422 
451.575 
469.806 
498.961 
553.743 
398.35 
414.283 
547.068 
480.826 
460.084 
431.414 
390.452 
408.982 
435.611 
517.209 
427.075 
479.05 
445.137 
436.983 
493.703 
493.28 
520.29 
421.326 
436.168 
485.483 
489.159 
507.181 
507.622 
488.445 
477.51 
491.745 
541.268 
435.935 
458.367 
464.525 
487.849 
456.445 
484.541 
456.192 
475.408 
516.068 
464.838 
503.484 
470.026 
459.821 
472.733 
443.548 
465.855 
512.583 
506.857 
446.884 
501.344 
489.909 
478.837 
460.383 
471.923 
383.973 
471.829 
495.233 
454.373 
503.257 
431.478 
457.963 
540.44 
553.62 
420.942 
418.417 
495.226 
511.807 
484.341 
472.643 
411.051 
460.199 
426.205 
433.476 
411.376 
460.655 
461.678 
423.803 
415.267 
465.5 
414.554 
412.416 
492.622 
451.822 
428.13 
459.475 
468.607 
473.779 
435.256 
440.678 
472.548 
493.704 
468.86 
509.256 
505.12 
438.836 
491.029 
505.576 
497.758 
504.919 
446.05 
508.1 
500.443 
408.801 
516.139 
422.439 
458.498 
457.464 
409.772 
405.113 
472.646 
482.023 
461.591 
555.423 
466.075 
445.463 
595.487 
466.554 
502.641 
480.097 
521.028 
504.771 
460.257 
559.617 
475.177 
549.65 
442.108 
493.909 
457.388 
480.342 
410.976 
506.084 
452.388 
499.78 
548.329 
513.038 
495.859 
460.89 
520.087 
491.834 
486.088 
470.6 
458.265 
464.217 
559.885 
462.609 
480.488 
446.604 
542.821 
435.802 
436.575 
431.164 
496.185 
504.196 
460.383 
473.353 
473.886 
524.595 
428.368 
467.13 
458.491 
516.235 
470.383 
520.791 
507.661 
452.965 
415.062 
441.309 
414.282 
503.842 
478.48 
516.997 
457.068 
468.7 
413.72 
453.199 
529.769 
479.755 
477.098 
535.37 
484.946 
481.461 
552.121 
464.031 
443.28 
569.085 
476.675 
501.594 
454.637 
436.74 
423.093 
427.02 
498.932 
530.327 
551.351 
514.021 
524.414 
515.14 
496.397 
502.989 
463.487 
464.315 
465.144 
427.194 
464.605 
532.57 
429.982 
448.722 
500.75 
494.65 
501.274 
533.781 
435.386 
486.688 
484.335 
510.822 
476.726 
489.282 
483.413 
566.745 
517.296 
492.686 
450.406 
486.586 
523.94 
494.283 
561.78 
520.488 
499.152 
425.765 
501.402 
547.72 
517.518 
490.565 
623.453 
668.466 
542.101 
529.456 
508.21 
513.652 
497.291 
554.938 
553.131 
527.697 
515.471 
523.815 
538.211 
522.823 
476.78 
495.806 
601.072 
447.682 
509.623 
532.762 
523.159 
550.343 
509.658 
477.462 
507.941 
559.66 
456.26 
492.515 
481.475 
512.033 
489.133 
495.01 
526.641 
547.667 
456.661 
556.198 
490.433 
548.052 
546.382 
571.946 
