ITEM: TIMESTEP
4000000
ITEM: NUMBER OF CELLS
1000
ITEM: BOX BOUNDS ss rr pp
0 0.004
0 0.01
-0.5 0.5
ITEM: CELLS f_temp1[*] 
297.108 
303.431 
300.555 
310.027 
288.182 
358.552 
316.067 
313.021 
287.737 
305.204 
336.593 
291.394 
280.84 
306.456 
330.551 
300.072 
286.294 
312.799 
284.882 
319.455 
293.554 
303.879 
339.039 
321.734 
301.876 
328.846 
310.526 
332.673 
340.328 
330.346 
323.622 
302.958 
278.318 
308.369 
303.936 
271.734 
312.787 
319.859 
309.181 
297.094 
343.465 
294.725 
320.606 
324.669 
329.278 
326.427 
314.392 
314.61 
294.809 
304.074 
337.824 
326.502 
324.208 
290.994 
323.042 
288.97 
289.447 
310.846 
282.515 
328.311 
304.242 
324.034 
282.004 
278.544 
301.735 
310.284 
318.047 
311.07 
318.321 
297.526 
291.77 
297.373 
291.695 
308.404 
295.327 
318.182 
343.15 
287.902 
277.842 
281.677 
278.245 
302.151 
277.322 
287.426 
306.321 
310.475 
321.793 
309.033 
278.519 
307.51 
319.702 
311.637 
327.615 
289.096 
296.839 
297.178 
329.837 
311.667 
313.965 
349.19 
336.593 
288.526 
363.479 
356.008 
338.951 
360.912 
333.151 
346.363 
299.072 
346.056 
358.106 
303.007 
331.738 
397.118 
387.959 
354.427 
297.017 
341.12 
323.783 
319.103 
349.519 
302.883 
298.797 
347.537 
351.132 
334.81 
333.851 
323.77 
324.794 
337.612 
328.996 
299.82 
349.864 
318.702 
352.383 
345.454 
323.526 
367.966 
333.262 
375.005 
335.293 
351.151 
347.68 
317.895 
350.816 
312.857 
323.111 
336.433 
360.693 
332.703 
343.245 
293.271 
351.904 
358.759 
342.911 
364.751 
339.027 
330.681 
363.622 
331.185 
358.009 
318.89 
324.268 
349.978 
370.519 
338.536 
321.835 
331.697 
374.304 
330.189 
341.151 
374.445 
345.65 
318.537 
365.225 
381.491 
358.649 
334.483 
331.696 
324.189 
318.85 
383.862 
364.444 
372.915 
371.765 
353.731 
339.54 
356.375 
317.866 
348.078 
332.094 
367.658 
347.453 
346.322 
377.682 
368.572 
327.15 
343.081 
351.271 
357.38 
346.082 
332.159 
375.467 
333.317 
334.774 
369.559 
363.637 
339.429 
345.141 
344.265 
351.931 
340.115 
298.828 
337.936 
360.173 
349.994 
359.916 
321.453 
351.702 
367.227 
395.503 
345.567 
385.558 
331.245 
350.546 
322.311 
365.667 
341.713 
330.963 
359.801 
362.507 
347.466 
342.431 
389.681 
371.285 
337.79 
330.392 
402.54 
356.755 
352.09 
340.073 
344.339 
341.149 
351.512 
367.253 
334.861 
359.949 
381.254 
379.602 
350.919 
376.194 
347.406 
365.663 
346.765 
368.469 
390.466 
391.003 
381.701 
347.479 
375.105 
335.668 
366.535 
372.086 
352.551 
394.712 
383.079 
388.029 
409.114 
401.541 
381.703 
383.307 
358.165 
383.393 
397.554 
362.918 
378.206 
352.716 
356.319 
366.913 
373.078 
390.49 
346.967 
390.145 
338.883 
337.058 
391.947 
327.233 
339.382 
395.18 
381.457 
387.518 
361.406 
394.982 
382.339 
368.588 
412.427 
395.899 
414.849 
349.165 
421.477 
374.946 
396.556 
409.492 
403.06 
394.412 
363.104 
395.115 
371.281 
344.73 
350.642 
381.017 
371.178 
354.368 
387.892 
410.968 
402.798 
375.063 
370.059 
392.836 
389.01 
364.526 
361.531 
384.549 
404.318 
398.246 
390.17 
367.893 
349.951 
401.768 
449.924 
386.294 
383.678 
397.107 
415.869 
421.719 
403.298 
413.608 
397.02 
355.025 
381.404 
368.966 
396.619 
395.408 
409.051 
380.356 
361.181 
390.771 
379.947 
379.283 
401.716 
412.76 
420.433 
377.703 
373.906 
387.293 
396.662 
368.013 
375.639 
369.545 
366.608 
402.085 
360.211 
380.02 
364.779 
404.942 
386.302 
381.414 
357.596 
368.781 
413.833 
363.762 
422.321 
382.844 
412.668 
411.779 
451.251 
360.613 
377.494 
351.995 
423.086 
397.612 
384.8 
409.007 
390.905 
381.346 
370.761 
392.272 
385.007 
415.181 
373.465 
407.646 
390.294 
397.357 
423.016 
416.58 
398.657 
382.467 
370.756 
445.563 
412.474 
412.25 
379.071 
379.198 
378.51 
420.279 
413.142 
436.121 
419.12 
384.947 
378.122 
404.772 
399.757 
401.446 
378.383 
408.911 
398.209 
370.852 
379.938 
387.584 
378.584 
403.494 
465.245 
392.028 
378.286 
424.831 
419.155 
386.533 
422.622 
405.682 
374.754 
397.424 
439.545 
429.165 
423.176 
381.249 
429.919 
434.386 
374.351 
424.586 
411.059 
392.539 
427.989 
391.923 
386.705 
353.631 
431.717 
411.091 
444.227 
431.792 
399.899 
407.549 
403.541 
395.159 
431.747 
395.891 
397.502 
425.072 
399.345 
443.675 
410.108 
388.837 
404.142 
413.462 
398.766 
454.813 
454.207 
443.092 
368.588 
414.289 
407.33 
391.035 
398.664 
382.099 
406.707 
327.43 
388.455 
377.607 
415.802 
451.895 
410.723 
414.018 
453.367 
408.945 
432.767 
439.666 
442.14 
417.331 
436.71 
427.494 
444.829 
461.916 
398.096 
439.936 
400.818 
426.822 
376.688 
374.841 
376.215 
384.233 
411.135 
428.777 
461.525 
461.315 
445.29 
414.957 
434.86 
435.601 
413.105 
431.512 
391.696 
388.926 
428.743 
435.549 
419.827 
486.015 
445.77 
385.603 
415.987 
394.229 
439.194 
354.652 
388.132 
405.003 
442.927 
404.202 
394.039 
407.864 
375.919 
414.759 
426.805 
386.165 
428.867 
383.239 
451.596 
444.406 
423.672 
373.337 
391.672 
401.873 
428.034 
403.015 
395.004 
429.073 
368.836 
435.381 
399.306 
449.932 
414.603 
445.765 
383.003 
418.189 
446.282 
450.853 
514.526 
430.133 
409.901 
411.937 
444.816 
447.959 
419.832 
459.522 
446.802 
416.069 
479.768 
446.19 
462.927 
442.433 
435.747 
419.101 
441.951 
461.441 
425.756 
362.716 
409.977 
428.62 
424.094 
383.662 
385.69 
414.504 
406.051 
448.078 
425.175 
451.049 
423.582 
490.773 
413.723 
509.673 
427.656 
561.341 
398.642 
449.473 
473.038 
370.36 
447.59 
480.692 
423.878 
385.118 
479.355 
496.355 
497.363 
440.673 
429.815 
475.195 
416.432 
514.137 
443.075 
495.114 
408.309 
474.107 
398.629 
445.654 
458.385 
430.845 
395.93 
397.478 
441.951 
427.694 
411.967 
459.44 
472.025 
389.915 
458.236 
436.61 
411.267 
394.128 
434.423 
396.593 
450.017 
429.46 
432.54 
365.856 
404.26 
431.34 
404.961 
404.199 
398.904 
514.364 
404.404 
465.914 
423.28 
458.836 
492.668 
487.169 
406.051 
414.233 
488.229 
430.583 
437.902 
415.05 
503.383 
507.106 
481.267 
478.658 
423.398 
431.759 
442.938 
404.124 
441.507 
449.009 
457.614 
418.378 
459.397 
400.995 
451.454 
445.065 
408.182 
439.137 
437.88 
506.607 
430.825 
415.745 
443.665 
398.949 
496.304 
472.061 
444.193 
465.933 
444.786 
492.831 
466.377 
447.684 
474.314 
452.294 
435.644 
445.231 
438.654 
528.593 
464.378 
475.377 
415.198 
478.538 
383.449 
416.262 
437.194 
406.162 
380.354 
483.898 
401.936 
436.378 
454.453 
432.127 
458.629 
415.94 
431.876 
378.68 
430.958 
435.26 
446.192 
416.809 
414.088 
462.254 
474.743 
433.662 
383.797 
431.219 
445.886 
435.532 
475.196 
480.951 
458.632 
480.192 
459.332 
449.955 
480.576 
482.682 
438.652 
484.926 
412.991 
420.587 
390.952 
420.537 
450.67 
459.615 
452.676 
466.217 
426.573 
456.873 
401.862 
455.54 
455.458 
436.619 
421.531 
431.113 
414.664 
426.457 
445.045 
377.694 
462.306 
429.944 
436.03 
459.495 
409.278 
466.977 
464.917 
393.553 
461.066 
462.943 
434.031 
485.992 
504.544 
432.66 
391.564 
510.675 
476.262 
496.498 
502.903 
510.917 
472.822 
419.005 
452.96 
423.585 
503.831 
464.499 
453.94 
502.033 
467.138 
547.736 
522.526 
496.003 
507.641 
486.717 
435.183 
387.878 
481.275 
398.806 
523.309 
502.062 
483.755 
517.534 
471.192 
545.425 
460.841 
385.878 
434.176 
471.962 
435.112 
559.17 
537.396 
533.097 
506.011 
483.043 
473.228 
554.197 
495.139 
471.268 
427.475 
534.464 
516.462 
529.081 
545.046 
503.295 
421.748 
475.159 
549.022 
464.426 
485.651 
553.086 
526.403 
504.821 
473.859 
475.879 
459.967 
579.855 
463.186 
446.71 
435.995 
475.842 
463.727 
442.12 
488.236 
534.783 
485.213 
471.868 
470.567 
538.156 
524.375 
441.162 
574.331 
421.826 
527.161 
520.892 
498.185 
493.776 
421.646 
621.84 
445.318 
490.568 
477.462 
492.984 
488.903 
478.316 
478.842 
524.446 
480.479 
483.999 
461.382 
473.393 
496.252 
489.823 
491.423 
532.937 
450.531 
495.179 
484.899 
530.755 
454.537 
496.368 
430.184 
473.036 
379.303 
431.082 
460.152 
478.08 
405.301 
526.554 
507.969 
473.967 
524.332 
517.6 
413.612 
505.099 
445.156 
452.804 
460.41 
485.033 
492.989 
401.129 
465.969 
433.753 
512.446 
554.17 
472.598 
425.392 
445.675 
502.343 
459.84 
478.804 
584.104 
571.859 
497.339 
416.251 
522.202 
428.944 
480.332 
498.487 
485.793 
529.066 
521.137 
509.892 
423.501 
502.978 
477.033 
476.004 
517.551 
525.455 
465.65 
550.22 
542.263 
472.352 
440.767 
504.632 
491.607 
502.115 
524.925 
462.492 
439.858 
481.849 
454.53 
421.353 
416.984 
429.487 
488.946 
514.824 
485.759 
464.177 
486.348 
470.957 
465.907 
446.031 
495.389 
409.012 
508.325 
440.565 
404.013 
447.667 
429.72 
493.371 
495.191 
429.638 
356.126 
435.882 
455.844 
415.958 
452.306 
480.013 
493.332 
475.817 
412.875 
517.435 
405.509 
452.322 
441.437 
514.371 
431.12 
494.743 
459.608 
405.326 
469.702 
497.137 
510.841 
449.896 
432.261 
530.901 
461.231 
439.255 
456.431 
540.784 
440.395 
483.095 
488.048 
448.214 
475.926 
527.965 
466.212 
472.009 
459.101 
465.987 
440.318 
433.205 
537.28 
473.468 
379.034 
450.996 
479.269 
478.876 
470.53 
488.165 
547.974 
496.477 
479.005 
