ITEM: TIMESTEP
8100000
ITEM: NUMBER OF CELLS
1000
ITEM: BOX BOUNDS ss rr pp
0 0.004
0 0.01
-0.5 0.5
ITEM: CELLS f_temp1[*] 
274.073 
310.878 
290.102 
303.923 
313.188 
318.472 
307.303 
286.485 
321.883 
293.454 
346.787 
315.871 
333.901 
299 
320.094 
306.353 
298.254 
296.889 
321.571 
312.722 
283.302 
308.443 
313.999 
339.365 
337.822 
345.57 
294.309 
311.929 
314.437 
293.979 
300.289 
298.24 
324.106 
306.373 
331.023 
296.095 
351.449 
324.034 
325.764 
320.476 
342.09 
308.015 
306.68 
311.119 
335.499 
358.326 
326.261 
297.02 
300.883 
319.804 
319.486 
324.729 
315.828 
337.512 
343.966 
339.272 
323.886 
299.076 
309.862 
264.231 
303.992 
290.566 
334.26 
318.303 
278.781 
308.977 
303.442 
318.28 
341.749 
304.594 
330.264 
313.145 
360.136 
348.414 
332.52 
383.994 
320.333 
363.301 
315.517 
356.556 
357.636 
293.515 
333.434 
324.873 
336.553 
307.572 
336.194 
332.937 
358.672 
333.152 
307.394 
327.127 
314.372 
337.291 
318.918 
320.343 
305.854 
318.724 
357.191 
335.012 
335.575 
305.974 
349.473 
334.098 
331.338 
302.932 
350.748 
362.468 
334.619 
310.985 
349.764 
343.81 
393.625 
347.195 
321.234 
327.249 
386.139 
325.442 
359.274 
301.159 
383.203 
347.413 
326.99 
294.855 
325.467 
319.524 
303.592 
298.099 
311.124 
315.799 
354.676 
322.193 
381.969 
298.253 
340.081 
316.376 
333.702 
355.353 
354.405 
358.716 
352.215 
308.071 
335.809 
313.232 
318.086 
357.397 
317.818 
329.783 
318.771 
324.558 
371.553 
332.686 
360.14 
327.878 
313.126 
316.786 
330.854 
323.816 
343.226 
338.159 
358.202 
353.662 
345.804 
325.363 
294.786 
328.407 
333.742 
320.724 
314.829 
320.522 
332.83 
357.827 
344.7 
340.649 
337.918 
347.734 
356.9 
351.085 
381.921 
350.293 
368.438 
353.179 
388.698 
307.309 
402.077 
400.696 
368.325 
343.222 
354.605 
370.485 
331.564 
372.058 
325.691 
349.991 
374.201 
362.057 
383.153 
322.845 
411.212 
329.595 
342.056 
360.505 
297.608 
344.014 
336.12 
322.44 
353.408 
301.263 
348.4 
356.462 
373.039 
339.469 
336.384 
322.159 
323.389 
303.832 
320.718 
358.356 
298.044 
354.498 
371.919 
347.712 
340.923 
318.263 
363.422 
325.604 
357.787 
348.715 
312.687 
361.025 
320.319 
380.264 
318.346 
355.365 
413.885 
344.785 
383.234 
349.416 
358.232 
430.533 
388.627 
373.816 
364.857 
368.831 
403.344 
348.951 
376.021 
368.238 
341.079 
350.973 
350.12 
347.12 
427.316 
402.292 
343.876 
346.283 
335.568 
312.858 
365.479 
362.025 
364.542 
357.422 
372.734 
393.76 
334.552 
391.326 
359.339 
369.246 
371.564 
407.767 
352.766 
320.56 
370.599 
333.471 
375.399 
330.218 
388.545 
363.761 
375.352 
353.606 
365.071 
373.941 
348.771 
409.549 
374.685 
396.79 
400.941 
380.509 
370.902 
430.892 
376.355 
343.655 
381.56 
370.332 
341.893 
378.127 
405.148 
351.991 
416.063 
426.931 
397.67 
379.021 
378.385 
351.512 
405.27 
332.715 
347.912 
397.261 
356.747 
383.626 
346.151 
346.359 
395.711 
368.758 
435.852 
350.064 
369.605 
367.805 
396.251 
399.646 
340.251 
400.788 
349.89 
390.483 
352.164 
390.546 
374.235 
405.204 
347.349 
354.846 
373.784 
390.342 
403.235 
391.431 
397.757 
389.541 
390.386 
399.598 
443.085 
399.625 
342.758 
356.318 
361.413 
347.202 
388.584 
391.669 
394.747 
356.084 
375.007 
369.438 
369.893 
361.605 
388.039 
362.139 
386.669 
379.046 
413.721 
354.285 
370.958 
407.38 
422.291 
384.629 
388.733 
396.445 
387.105 
420.353 
377.09 
414.517 
344.682 
372.362 
377.59 
395.838 
371.691 
403.908 
394.071 
353.404 
381.797 
378.939 
394.092 
400.464 
380.361 
373.768 
388.769 
365.445 
406.882 
350.676 
383.453 
409.006 
381.558 
366.708 
415.886 
423.908 
391.042 
349.379 
401.527 
416.375 
386.016 
422.594 
410.053 
368.365 
408.858 
409.369 
357.661 
363.535 
380.123 
366.902 
435.489 
397.048 
364.777 
466.18 
419.63 
410.082 
428.502 
362.828 
392.449 
434.962 
408.414 
375.188 
409.784 
398.233 
400.531 
448.267 
398.883 
417.807 
425.007 
410.54 
433.102 
348.354 
431.046 
450.982 
481.677 
413.319 
498.029 
435.058 
447.472 
398.302 
392.876 
409.898 
379.881 
405.313 
432.608 
352.383 
468.051 
384.354 
401.257 
416.689 
334.419 
449.284 
422.089 
407.052 
350.269 
457.221 
425.29 
435.595 
408.469 
394.63 
396.382 
412.201 
353.088 
424.453 
427.281 
349.113 
361.316 
415.261 
351.172 
381.196 
416.483 
351.075 
366.846 
455.482 
394.682 
351.37 
373.394 
433.254 
428.461 
376.857 
410.072 
401.23 
356.078 
395.907 
376.018 
363.597 
385.596 
459.227 
445.124 
408.256 
414.546 
392.271 
399.079 
406.823 
390.724 
456.861 
428.896 
404.257 
401.442 
382.748 
363.721 
441.544 
368.3 
399.385 
368.168 
400.713 
465.205 
443.519 
469.456 
505.989 
361.347 
416.162 
441.143 
398.149 
434.452 
424.607 
409.082 
426.976 
423.228 
404.432 
404.224 
428.336 
442.87 
437.279 
420.001 
438.854 
471.098 
395.851 
435.515 
440.23 
392.883 
387.706 
407.642 
379.205 
385.853 
435.884 
390.327 
389.305 
419.425 
418.516 
472.842 
431.872 
434.516 
399.471 
405.295 
400.875 
463.128 
399.61 
450.156 
468.335 
425.787 
487.891 
466.824 
427.977 
430.147 
438.875 
438.872 
411.659 
426.267 
429.71 
442.407 
426.051 
405.451 
455.191 
392.886 
454.85 
474.36 
434.782 
475.775 
441.36 
464.335 
440.944 
436.665 
460.716 
445.657 
428.426 
414.684 
410.944 
437.541 
436.709 
438.185 
434.801 
455.598 
401.724 
468.593 
398.138 
445.736 
442.954 
445.665 
404.011 
436.274 
476.678 
430.093 
456.092 
451.678 
413.045 
468.832 
426.218 
423.507 
492.802 
411.786 
441.734 
436.643 
438.888 
446.714 
423.001 
458.358 
466.81 
537.142 
451.793 
404.537 
475.204 
435.427 
475.597 
471.064 
424.505 
411.931 
473.974 
421.396 
424.892 
403.102 
433.337 
430.791 
407.961 
459.068 
477.902 
458.72 
397.453 
422.275 
470.928 
450.335 
372.68 
403.387 
410.542 
379.828 
395.575 
411.884 
400.222 
391.867 
434.213 
471.444 
390.301 
482.359 
478.001 
477.843 
405.625 
455.654 
440.382 
445.078 
503.185 
421.541 
401.74 
433.035 
475.438 
472.167 
437.001 
427.926 
393.221 
486.281 
417.442 
435.697 
429.166 
448.635 
454.953 
410.501 
418.832 
433.154 
435.841 
390.651 
426.147 
361.59 
414.41 
402.063 
426.205 
442.805 
483.309 
455.422 
424.607 
374.296 
386.929 
400.191 
405.382 
419.673 
389.64 
448.373 
457.699 
431.316 
453.502 
393.69 
458.465 
440.787 
424.441 
445.648 
406.304 
384.38 
441.481 
452.878 
435.546 
460.118 
428.916 
414.435 
465.417 
383.065 
475.71 
447.315 
454.507 
417.133 
466.629 
433.825 
464.852 
452.102 
389.998 
420.733 
408.689 
409.365 
456.368 
480.627 
405.616 
508.616 
500.141 
471.278 
407.501 
430.35 
434.389 
443.129 
452.979 
502.958 
473.794 
543.327 
442.245 
484.512 
449.524 
439.53 
461.491 
541.692 
441.897 
410.852 
471.226 
450.016 
398.605 
436.423 
398.845 
502.737 
444.67 
433.008 
457.976 
451.392 
510.795 
454.509 
446.383 
390.121 
435.802 
467.388 
448.182 
440.373 
476.088 
402.266 
417.46 
472.672 
440.597 
482.762 
485.739 
468.069 
410.507 
400.644 
433.729 
427.891 
447.422 
467.64 
464.564 
408.596 
461.879 
415.556 
494.838 
465.653 
461.677 
440.047 
546.037 
452.369 
449.575 
493.536 
453.76 
437.01 
438.796 
441.387 
471.332 
465.791 
487.358 
478.132 
433.011 
472.212 
451.435 
520.661 
483.296 
448.507 
487.232 
506.765 
438.485 
482.159 
559.989 
449.553 
442.703 
520.817 
418.901 
459.952 
444.04 
482.384 
484.623 
516.854 
511.022 
444.555 
492.8 
462.272 
442.97 
440.122 
495.095 
433.301 
411.29 
486.864 
574.502 
531.819 
460.084 
498.441 
510.256 
505.373 
490.048 
507.968 
519.475 
501.702 
442.114 
490.516 
502.816 
467.69 
463.715 
516.864 
460.216 
534.932 
543.76 
516.407 
487.987 
416.717 
466.463 
521.899 
426.262 
487.469 
510.572 
472.67 
494.232 
457.692 
425.788 
414.903 
392.573 
473.668 
555.926 
440.491 
463.994 
444.388 
419.704 
470.23 
415.354 
519.444 
436.785 
486.927 
419.202 
461.397 
517.707 
449.635 
466.36 
540.3 
456.196 
465.797 
567.034 
468.47 
451.077 
430.709 
453.987 
473.141 
457.634 
411.227 
510.531 
470.51 
497.028 
501.381 
550.758 
497.884 
461.737 
540.451 
433.46 
513.682 
495.102 
486.708 
551.984 
400.534 
535.197 
465.051 
372.472 
437.37 
507.93 
473.479 
579.388 
560.706 
509.119 
529.968 
520.902 
477.041 
464.994 
478.025 
464.153 
477.789 
471.955 
525.235 
493.953 
494.95 
522.73 
496.76 
528.349 
518.572 
539.892 
550.684 
468.526 
484.045 
549.999 
528.831 
493.367 
514.815 
488.19 
503.426 
488.752 
506.56 
475.828 
394.175 
485.564 
426.774 
474.43 
493.269 
453.554 
495.161 
512.456 
464.243 
512.573 
461.509 
438.941 
532.879 
466.304 
501.422 
527.77 
519.636 
480.096 
459.663 
507.297 
525.207 
510.384 
515.565 
508.995 
479.592 
436.474 
431.786 
438.865 
463.112 
480.612 
496.333 
509.783 
490.241 
455.961 
521.989 
499.672 
460.657 
536.018 
451.976 
491.51 
501.912 
503.33 
448.754 
441.667 
500.816 
518.773 
423.202 
409.5 
459.485 
452.249 
453.987 
543.028 
585.775 
484.386 
478.441 
488.089 
541.159 
484.976 
546.09 
531.588 
483.613 
483.096 
480.188 
518.278 
516.734 
528.719 
543.985 
522.238 
503.691 
448.338 
552.231 
496.129 
506.971 
511.799 
