ITEM: TIMESTEP
3300000
ITEM: NUMBER OF CELLS
1000
ITEM: BOX BOUNDS ss rr pp
0 0.004
0 0.01
-0.5 0.5
ITEM: CELLS f_temp1[*] 
305.722 
281.656 
297.736 
278.385 
306.988 
288.209 
295.788 
315.277 
315.12 
275.503 
330.193 
318.019 
308.985 
284.777 
287.244 
317.776 
328.407 
322.73 
309.743 
306.836 
311.359 
322.643 
302.903 
299.756 
276.623 
293.057 
310.866 
263.535 
308.141 
296.29 
297.257 
288.772 
288.598 
292.686 
304.235 
297.208 
314.443 
286.267 
303.648 
307.861 
290.924 
283.173 
282.022 
274.738 
301.59 
264.669 
294.573 
318.713 
317.651 
298.235 
297.574 
278.863 
297.079 
282.792 
315.45 
325.797 
284.609 
296.066 
320.526 
326.198 
325.601 
316.643 
321.394 
311.532 
311.903 
326.902 
380.772 
345.664 
326.679 
336.171 
335.587 
369.35 
332.797 
317.905 
309.388 
328.832 
313.837 
301.143 
319.657 
335.264 
319.818 
321.947 
331.684 
322.336 
319.979 
328.705 
297.877 
325.372 
333.288 
333.786 
298.541 
271.794 
305.953 
278.8 
318.647 
289.983 
346.301 
326.726 
305.399 
319.535 
278.527 
289.253 
270.131 
326.407 
315.978 
331.693 
323.318 
347.235 
313.336 
351.827 
351.456 
302.094 
346.05 
329.475 
369.349 
372.675 
310.278 
322.152 
329.01 
367.655 
333.659 
291.289 
343.295 
330.33 
310.831 
316.738 
333.66 
317.844 
337.408 
311.438 
317.246 
311.91 
313.975 
312.751 
324.719 
314.003 
303.911 
304.819 
313.501 
318.013 
280.093 
321.411 
329.99 
324.993 
333.996 
273.785 
306.351 
336.45 
320.258 
327.629 
346.262 
368.867 
327.105 
340.888 
344.303 
315.691 
352.368 
364.55 
325.218 
356.028 
337.783 
365.885 
363.572 
340.357 
347.884 
312.146 
358.266 
357.42 
337.778 
332.58 
351.085 
329.822 
343.403 
361.269 
350.317 
356.177 
331.547 
347.131 
323.486 
344.504 
393 
322.787 
359.513 
351.238 
349.204 
304.36 
352.535 
339.831 
344.209 
376.874 
357.95 
339.163 
329.512 
313.437 
342.73 
395.18 
351.208 
364.071 
333.131 
387.924 
383.141 
340.785 
358.71 
404.3 
416.246 
384.785 
381.501 
356.513 
379.118 
370.871 
379.852 
392.916 
321.969 
293.146 
368.749 
390.2 
320.967 
313.159 
353.077 
400.325 
329.864 
345.429 
370.35 
313.267 
350.724 
364.981 
360.376 
351.591 
366.601 
359.177 
352.859 
347.364 
371.572 
318.008 
345.458 
384.439 
390.368 
340.512 
389.566 
362.484 
369.535 
337.635 
354.049 
360.129 
370.301 
395.761 
358.916 
363.532 
410.052 
372.776 
340.364 
368.216 
348.943 
390.07 
356.647 
326.436 
359.51 
361.739 
346.979 
333.523 
341.066 
371.487 
371.705 
356.846 
346.682 
357.763 
408.768 
316.423 
376.156 
355.575 
391.389 
354.179 
346.173 
319.859 
353.283 
408.657 
356.959 
368.744 
426.456 
334.838 
403.282 
369.835 
354.647 
338.662 
390.195 
361.525 
411.679 
420.826 
416.217 
393.531 
402.779 
403.299 
405.185 
394.653 
429.317 
435.94 
369.441 
354.331 
369.95 
373.339 
353.277 
369.866 
385.336 
362.934 
377.645 
369.416 
389.565 
403.147 
419.383 
406.563 
377.874 
398.921 
355.75 
441.999 
379.107 
388.748 
417.525 
435.221 
359.921 
380.034 
367.13 
375.934 
433.584 
339.348 
399.092 
358.902 
374.285 
353.928 
376.774 
383.295 
370.981 
350.165 
327.957 
410.339 
323.091 
382.723 
379.569 
326.286 
383.942 
350.145 
364.905 
344.671 
360.799 
375.773 
359.14 
401.603 
416.534 
409.918 
411.168 
363.496 
432.711 
352.093 
329.38 
383.545 
368.238 
386.858 
376.831 
360.907 
369.587 
350.109 
383.119 
378.975 
360.48 
377.995 
424.863 
396.399 
374.388 
368.235 
382.658 
364.643 
414.119 
418.767 
356.347 
393.158 
391.069 
360.506 
407.208 
401.839 
353.949 
374.388 
422.591 
388.161 
393.744 
375.494 
406.72 
362.18 
319.586 
407.12 
389.549 
352.382 
371.566 
402.838 
391.129 
342.137 
379.659 
424.208 
405.263 
355.183 
357.813 
379.056 
397.335 
353.753 
389.39 
386.936 
402.936 
414.316 
351.322 
336.92 
331.989 
375.935 
418.977 
371.011 
406.157 
365.649 
378.55 
395.471 
355.169 
365.198 
378.321 
421.933 
343.532 
416.047 
389.611 
391.075 
378.695 
362.266 
351.952 
409.425 
388.802 
334.812 
379.359 
426.614 
448.068 
460.029 
390.911 
430.427 
404.609 
399.798 
432.746 
409.607 
446.461 
423.262 
430.739 
425.744 
396.297 
354.094 
427.999 
414.643 
395.078 
366.226 
452.179 
404.549 
391.794 
386.641 
408.151 
329.802 
364.625 
398.967 
445.423 
404.281 
393.039 
358.069 
394.854 
392.588 
389.017 
418.601 
382.894 
455.665 
376.336 
346.4 
382.657 
398.669 
397.312 
380.14 
397.368 
384.224 
395.138 
375.18 
378.709 
345.555 
405.709 
401.082 
386.49 
379.881 
416.755 
366.643 
405.407 
446.016 
394.114 
387.859 
447.512 
429.808 
450.696 
354.508 
366.02 
361.838 
369.386 
438.666 
433.192 
383.354 
465.039 
368.69 
385.357 
392.299 
447.503 
468.823 
405.904 
406.458 
358.412 
403.781 
411.027 
395.951 
436.625 
441.519 
367.712 
410.309 
468.362 
420.166 
460.831 
415.975 
397.609 
420.842 
368.223 
408.252 
405.895 
447.4 
394.499 
431.175 
352.912 
404.315 
446.298 
404.459 
416.057 
441.215 
396.763 
380.823 
422.218 
397.621 
457.562 
423.326 
411.397 
469.832 
433.719 
436.514 
405.317 
379.253 
425.711 
418.687 
415.067 
409.111 
434.425 
386.314 
412.816 
367.317 
461.205 
427.563 
424.033 
403.388 
398.109 
460.939 
395.896 
488.343 
400.672 
486.483 
362.692 
482.934 
481.937 
449.805 
475.556 
434.754 
415.594 
476.215 
396.105 
477.965 
400.597 
470.152 
456.98 
428.898 
429.112 
404.387 
357.168 
451.864 
443.878 
435.807 
469.374 
444.819 
457.44 
462.069 
456.978 
463.137 
414.868 
414.647 
423.875 
455.779 
455.382 
442.366 
487.052 
472.536 
483.7 
418.225 
426.033 
417.292 
467.602 
456.687 
425.122 
497.169 
482.534 
482.259 
429.284 
423.4 
413.852 
430.171 
453.023 
494.323 
442.694 
431.164 
431.247 
424.143 
455.955 
441.268 
463.036 
492.901 
438.669 
485.901 
395.597 
447.474 
447.192 
500.761 
463.291 
482.535 
382.095 
488.764 
484.934 
409.656 
432.306 
398.411 
446.449 
444.027 
510.496 
465.897 
443.461 
422.05 
408.154 
420.857 
453.074 
491.516 
419.859 
462.86 
458.978 
427.142 
437.938 
412.104 
432.818 
427.499 
463.803 
486.731 
494.478 
382.24 
421.982 
464.765 
434.125 
433.079 
473.716 
445.914 
443.964 
416.999 
397.858 
442.216 
416.977 
410.076 
448.74 
455.884 
434.807 
418.589 
347.523 
441.943 
427.251 
413.144 
384.06 
405.815 
501.575 
477.594 
478.611 
458.706 
414.946 
527.252 
476.224 
410.129 
361.373 
473.575 
438.372 
448.146 
418.085 
473.494 
483.449 
400.19 
465.989 
394.615 
422.306 
432.865 
408.219 
435.793 
458.652 
468.675 
464.201 
496.436 
518.095 
477.434 
455.45 
470.259 
483.777 
481.505 
440.517 
499.987 
509.209 
519.626 
422.882 
520.286 
459.476 
483.974 
501.114 
444.41 
393.094 
435.706 
467.854 
448.761 
481.181 
441.055 
457.522 
427.556 
437.948 
437.482 
443.878 
468.21 
430.182 
402.556 
364.243 
415.611 
470.198 
454.608 
416.418 
419.31 
437.969 
428.315 
398.783 
443.012 
508.288 
437.18 
469.437 
559.106 
485.992 
498.902 
422.914 
428.691 
464.709 
430.874 
470.598 
512.062 
478.527 
463.091 
443.118 
504.477 
418.44 
498.745 
591.233 
433.249 
507.255 
422.789 
474.281 
382.11 
463.337 
446.008 
473.268 
487.627 
417.243 
446.927 
513.293 
512.042 
445.343 
511.898 
444.367 
469.343 
534.967 
505.767 
454.37 
474.588 
469.642 
449.455 
401.404 
448.848 
447.58 
494.687 
446.689 
493.296 
464.524 
518.123 
451.607 
364.289 
419.538 
451.111 
441.893 
490.663 
435.374 
508.228 
513.357 
412.84 
417.003 
452.882 
488.066 
533.278 
391.24 
447.156 
463.801 
427.069 
423.46 
410.982 
421.757 
417.57 
463.419 
460.802 
507.398 
531.605 
464.327 
451.108 
433.693 
426.259 
448.741 
390.572 
425.823 
492.57 
451.068 
432.711 
513.453 
463.712 
506.368 
494.126 
502.831 
484.466 
463.411 
495.261 
474.381 
418.216 
451.347 
429.919 
478.351 
507.484 
474.644 
456.353 
447.091 
452.776 
450.07 
434.408 
491.861 
465.56 
422.924 
437.525 
526.211 
527.336 
467.554 
486.907 
464.998 
492.034 
505.019 
454.63 
522.639 
526.386 
474.28 
420.73 
508.209 
486.284 
469.675 
441.164 
419.098 
488.744 
425.921 
413.46 
423.06 
420.435 
427.416 
427.781 
462.879 
488.423 
427.77 
502.829 
479.411 
411.163 
491.993 
452.763 
453.494 
473.971 
451.934 
550.787 
498.013 
457.757 
462.379 
464.96 
453.247 
458.824 
501.131 
483.269 
543.439 
479.747 
445.744 
482.501 
468.896 
453.004 
460.441 
529.744 
422.47 
461.941 
522.201 
444.861 
451.086 
466.666 
516.654 
447.685 
528.598 
510.81 
486.547 
422.921 
464.853 
491.217 
529.307 
488.118 
443.286 
486.542 
450.446 
468.45 
443.333 
484.416 
455.315 
484.37 
466.907 
462.971 
487.786 
554.992 
451.54 
466.073 
479.793 
481.773 
517.072 
443.067 
425.644 
464.118 
465.212 
531.432 
531.928 
498.59 
508.483 
434.079 
418.024 
484.534 
476.828 
527.89 
478.618 
444.867 
533.009 
542.569 
492.905 
441.382 
453.057 
437.857 
502.346 
516.912 
435.915 
483.62 
461.957 
500.316 
470.926 
401.385 
442.887 
528.185 
411.781 
455.353 
472.696 
461.589 
441.809 
510.452 
464.805 
470.755 
493.232 
478.484 
543.53 
471.137 
457.173 
473.925 
478.473 
550.377 
463.11 
547.566 
495.462 
539.161 
535.989 
514.953 
510.654 
540.027 
516.688 
541.235 
521.662 
477.042 
