ITEM: TIMESTEP
3500000
ITEM: NUMBER OF CELLS
1000
ITEM: BOX BOUNDS ss rr pp
0 0.004
0 0.01
-0.5 0.5
ITEM: CELLS f_temp1[*] 
314.597 
313.312 
346.742 
275.401 
328.279 
305.272 
296.038 
280.696 
307.059 
255.133 
301.82 
307.223 
312.164 
299.814 
283.467 
308.258 
312.08 
309.729 
278.494 
321.023 
322.203 
306.337 
320.302 
356.872 
291.69 
279.415 
315.072 
298.342 
281.281 
327.454 
268.876 
277.679 
309.235 
305.427 
275.5 
304.874 
284.97 
294.924 
292.627 
317.456 
305.171 
281.147 
291.058 
258.408 
299.694 
309.988 
288.393 
281.141 
272.874 
280.816 
289.567 
284.934 
312.577 
292.199 
283.126 
285.747 
285.142 
298.732 
310.439 
299.966 
315.372 
318.316 
312.384 
335.048 
304.311 
298.764 
304.866 
321.703 
291.336 
348.137 
308.69 
312.887 
317.472 
311.603 
329.015 
316.576 
301.555 
318.917 
308.111 
276.464 
273.186 
295.09 
314.686 
263.684 
294.13 
290.729 
331.403 
306.742 
316.609 
249.35 
328.26 
309.606 
306.15 
322.083 
318.818 
326.248 
329.693 
313.319 
296.425 
318.722 
316.293 
332.471 
319.789 
286.561 
344.131 
308.035 
317.938 
309.106 
351.35 
299.596 
346.499 
330.972 
322.25 
291.853 
315.382 
303.729 
328.142 
312.952 
315.357 
321.773 
307.512 
319.734 
371.144 
361.848 
284.865 
298.498 
301.154 
329.02 
349.545 
319.391 
296.932 
376.374 
296.844 
319.297 
338.191 
328.477 
348.621 
316.41 
355.659 
342.401 
292.927 
323.164 
307.48 
323.658 
314.398 
317.269 
300.434 
319.748 
330.907 
298.907 
318.457 
311.786 
299.538 
321.857 
323.953 
351.313 
329.743 
338.441 
295.41 
305.698 
335.006 
336.69 
320.935 
332.638 
317.624 
308.801 
334.9 
312.752 
349.703 
296.77 
303.933 
339.891 
329.937 
298.864 
342.964 
321.911 
342.803 
350.325 
311.422 
309.268 
329.762 
364.125 
327.738 
353.725 
316.411 
369.35 
349.966 
353.13 
343.447 
341.548 
434.511 
366.712 
361.712 
345.822 
348.958 
354.197 
350.235 
382.936 
329.181 
386.367 
377.127 
372.62 
350.076 
360.679 
358.908 
362.477 
405.937 
344.664 
358.027 
383.249 
374.377 
352.933 
406.413 
374.253 
375.372 
364.317 
352.798 
358.604 
383.606 
384.462 
390.631 
375.324 
388.036 
343.166 
406.253 
399.491 
351.617 
334.008 
388.864 
378.352 
334.595 
387.967 
395.785 
368.225 
372.648 
319.88 
379.372 
371.207 
378.332 
299.687 
365.072 
329.062 
354.295 
384.778 
327.129 
362.699 
371.654 
365.742 
351.715 
353.803 
376.391 
334.987 
326.611 
370.361 
422.818 
357.399 
382.546 
395.412 
424.635 
388.068 
361.145 
325.228 
353.486 
329.707 
366.503 
373.146 
309.361 
360.757 
354.348 
323.47 
325.435 
389.549 
399.203 
372.351 
366.59 
390.55 
381.947 
341.463 
380.654 
364.198 
385.575 
391.424 
393.47 
355.542 
331.004 
396.545 
350.187 
320.376 
347.561 
348.028 
375.093 
389.376 
381.338 
396.196 
365.717 
357.825 
354.404 
351.513 
341.589 
350.953 
321.409 
360.191 
350.643 
325.824 
369.301 
356.295 
432.975 
398.48 
351.09 
338.218 
349.022 
383.246 
385.385 
366.781 
356.212 
355.353 
360.481 
385.894 
395.651 
334.746 
305.539 
335.669 
337.976 
345.283 
336.578 
380.942 
361.627 
364.315 
325.791 
376.426 
362.57 
327.939 
336.566 
415.059 
352.769 
373.164 
351.54 
338.348 
358.939 
386.293 
425.737 
383.574 
362.435 
417.276 
406.584 
397.546 
367.093 
419.936 
388.361 
382.583 
341.758 
351.822 
381.052 
354.042 
361.604 
359.973 
395.354 
374.473 
367.642 
385.07 
346.06 
389.327 
378.727 
347.809 
375.472 
357.003 
396.305 
364.319 
389.978 
443.597 
404.651 
404.558 
363.678 
389 
366.569 
368.946 
374.466 
393.628 
357.556 
331.915 
347.114 
374.742 
374.226 
380.26 
350.139 
385.745 
392.183 
369.143 
431.768 
412.429 
420.619 
408.224 
433.175 
377.05 
414.546 
457.206 
380.174 
443.144 
428.167 
354.557 
371.178 
429.659 
351.863 
394.01 
394.152 
392.798 
396.331 
367.11 
431.213 
402.383 
364.691 
409.659 
486.852 
403.838 
387.816 
406.496 
401.541 
386.709 
463.056 
410.63 
409.883 
412.114 
412.722 
444.86 
435.728 
420.601 
414.616 
405.228 
420.94 
454.603 
359.222 
360.902 
370.57 
405.605 
371.743 
339.1 
377.731 
372.193 
360.544 
395.179 
357.491 
348.794 
414.653 
430.784 
418.961 
436.409 
351.524 
473.866 
394.501 
368.9 
384.357 
400.151 
370.447 
360.198 
416.773 
436.489 
466.466 
402.096 
433.857 
393.27 
425.82 
442.783 
393.89 
464.022 
416.83 
374.641 
386.959 
396.094 
426.321 
430.744 
428.104 
437.445 
461.098 
435.309 
403.329 
454.04 
389.597 
442.213 
394.53 
404.968 
415.614 
367.909 
370.631 
405.965 
361.688 
400.519 
391.529 
432.792 
424.97 
384.388 
424.814 
417.854 
384.492 
452.457 
405.9 
443.875 
419.294 
434.256 
412.536 
370.068 
450.236 
446.539 
437.599 
408.83 
419.211 
396.904 
417.958 
400.034 
453.33 
413.545 
449.608 
418.124 
416.457 
442.472 
511.54 
425.799 
463.677 
420.148 
425.607 
421.049 
415.624 
454.604 
428.819 
455.128 
396.19 
402.94 
449.233 
446.364 
417.277 
430.635 
432.794 
403.188 
421.489 
426.565 
438.974 
472.552 
450.324 
387.661 
416.333 
411.341 
433.388 
447.13 
427.787 
459.361 
462.161 
396.541 
437.156 
404.083 
396.148 
478.799 
389.527 
377.847 
409.416 
427.375 
414.749 
457.047 
380.046 
380.254 
371.241 
360.243 
375.424 
399.699 
402.966 
377.86 
368.835 
391.705 
403.576 
399.293 
386.147 
425.446 
416.286 
424.511 
401.029 
412.874 
389.135 
391.691 
398.091 
372.5 
431.182 
404.162 
372.739 
419.156 
397.426 
390.15 
385.542 
447.191 
374.794 
412.469 
405.432 
395.002 
447.5 
331.677 
387.253 
397.222 
388.07 
470.579 
418.488 
438.721 
420.256 
424.684 
376.53 
440.741 
430.928 
398.981 
424.443 
433.618 
408.626 
377.133 
424.799 
439.287 
508.223 
415.457 
423.221 
441.103 
389.697 
416.479 
437.668 
420.94 
416.18 
431.387 
448.741 
423.015 
412.194 
435.515 
374.163 
361.413 
405.684 
386.552 
460.936 
381.197 
364.275 
363.89 
411.641 
417.478 
413.47 
424.513 
401.742 
394.054 
347.855 
408.765 
429.178 
436.923 
409.308 
489.202 
434.803 
380.138 
460.17 
440.31 
444.45 
387.775 
414.439 
392.724 
432.641 
370.739 
412.142 
401.747 
453.944 
429.22 
434.815 
448.33 
428.671 
421.202 
391.186 
456.191 
412.727 
443.932 
423.618 
408.847 
403.942 
431.478 
387.178 
404.118 
409.149 
367.725 
457.496 
382.28 
369.601 
418.991 
461.677 
387.287 
416.638 
433.567 
463.519 
459.661 
416.095 
493.013 
461.606 
401.335 
452.029 
447.505 
451.847 
482.389 
437.55 
451.073 
455.739 
446.923 
460.656 
434.662 
426.841 
467.573 
438.46 
420.397 
481.475 
507.016 
450.556 
405.348 
431.507 
455.261 
462.195 
432.242 
478.671 
508.69 
448.75 
429.52 
469.84 
509.005 
465.921 
443.19 
506.456 
483.31 
497.748 
481.147 
425.698 
468.266 
450.367 
465.859 
492.038 
489.935 
428.078 
452.852 
461.144 
533.886 
442.608 
512.798 
445.667 
507.517 
465.348 
466.177 
517.851 
473.623 
461.272 
518.185 
418.906 
466.4 
487.357 
517.958 
509.605 
459.049 
446.212 
530.324 
438.732 
520.34 
461.685 
420.212 
456.801 
416.95 
476.321 
408.931 
445.422 
392.783 
502.512 
487.261 
430.747 
462.244 
471.952 
408.728 
489.581 
437.731 
454.484 
426.014 
477.793 
394.237 
485.3 
450.459 
436.008 
451.116 
410.14 
490.25 
472.217 
433.811 
467.303 
427.527 
405.475 
470.977 
396.442 
461.407 
449.362 
477.203 
438.322 
457.655 
428.843 
465.777 
472.832 
415.587 
411.121 
429.705 
484.13 
468.186 
419.897 
459.034 
451.254 
433.311 
535.173 
466.268 
458.499 
480.879 
507.956 
430.929 
468.551 
505.147 
457.426 
505.668 
465.576 
447.41 
485.913 
511.94 
470.588 
437.425 
430.604 
458.246 
465.027 
518.21 
459.284 
496.41 
484.089 
416.343 
510.741 
456.493 
431.591 
523.093 
492.006 
470.827 
483.614 
504.678 
522.557 
491.955 
504.78 
461.912 
476.487 
501.656 
507.115 
514.171 
461.786 
505.358 
470.945 
541.526 
504.723 
475.395 
541.004 
495.716 
454.598 
488.88 
451.194 
460.774 
527.046 
495.248 
447.73 
459.903 
454.747 
427.097 
477.521 
446.717 
457.68 
462.928 
485.508 
478.901 
407.485 
535.563 
514.122 
464.531 
449.018 
364.735 
476.561 
440.045 
538.438 
436.003 
474.081 
475.945 
470.985 
450.925 
462.483 
505.784 
451.332 
446.562 
546.313 
432.851 
551.675 
533.157 
478.575 
540.395 
457.049 
453.793 
448.431 
495.22 
514.328 
476.145 
580.585 
478.063 
540.162 
436.338 
521.447 
519.693 
464.901 
498.951 
457.648 
462.687 
503.317 
568.164 
462.652 
468.305 
523.712 
532.9 
488.812 
539.488 
487.678 
506.785 
516.146 
515.283 
553.15 
486.299 
492.639 
535.748 
504.281 
467.148 
447.938 
526.204 
526.592 
554.367 
560.59 
526.632 
537.794 
515.195 
523.195 
482.351 
512.792 
579.034 
470.91 
520.439 
493.708 
481.27 
526.667 
478.29 
528.619 
473.53 
529.002 
543.365 
477.921 
567.902 
570.243 
569.563 
546.337 
531.468 
558.648 
500.822 
464.964 
520.005 
548.935 
479.034 
523.642 
446.768 
509.081 
581.724 
581.007 
506.882 
561.016 
468.719 
541.918 
524.179 
459.645 
545.138 
534.228 
505.804 
533.856 
550.849 
482.716 
475.14 
498.652 
548.266 
466.225 
474.067 
483.78 
480.437 
497.683 
466.964 
518.144 
520.259 
520.048 
557.825 
533.247 
516.728 
478.34 
468.476 
497.248 
536.898 
449.323 
549.004 
434.842 
495.13 
515.515 
460.651 
