ITEM: TIMESTEP
3700000
ITEM: NUMBER OF CELLS
1000
ITEM: BOX BOUNDS ss rr pp
0 0.004
0 0.01
-0.5 0.5
ITEM: CELLS f_temp1[*] 
291.779 
286.314 
283.522 
277.455 
293.72 
299.289 
292.928 
287.548 
314.271 
303.158 
304.438 
283.518 
301.624 
301.243 
295.244 
295.109 
303.098 
307.198 
313.064 
308.794 
318.965 
311.834 
302.527 
313.628 
295.916 
340.689 
337.404 
304.199 
328.089 
305.688 
275.433 
315.348 
326.076 
305.503 
283.103 
294.273 
313.958 
304.122 
274.873 
316.929 
269.172 
281.102 
302.248 
287.83 
258.345 
313.163 
303.574 
282.749 
302.611 
302.432 
296.872 
317.516 
316.942 
293.408 
305.055 
328.882 
329.773 
312.598 
317.086 
309.787 
325.292 
272.208 
353.526 
314.158 
324.205 
273.544 
343.432 
308.06 
350.721 
362.092 
338.267 
367.779 
330.742 
317.249 
357.009 
327.505 
303.637 
337.275 
307.121 
303.307 
347.534 
363.846 
317.594 
306.712 
328.512 
303.583 
326.798 
360.854 
342.459 
339.534 
350.695 
343.857 
340.851 
341.516 
309.3 
337.009 
352.28 
337.898 
332.453 
316.531 
329.64 
345.344 
353.843 
326.846 
375.402 
321.67 
325.011 
314.011 
323.995 
305.015 
337.796 
351.427 
331.807 
327.932 
363.486 
314.216 
298.833 
313.065 
323.246 
347.628 
343.106 
346.252 
345.185 
338.788 
320.254 
353.585 
307.323 
343.274 
347.037 
363.085 
322.492 
342.341 
327.565 
280.787 
364.336 
345.775 
332.278 
331.409 
307.61 
334.961 
354.456 
318.648 
363.393 
351.527 
305.261 
347.916 
381.722 
303.544 
369.473 
359.039 
307.448 
331.552 
351.823 
340.837 
359.464 
349.976 
299.513 
381.764 
347.92 
356.078 
314.903 
273.871 
334.226 
313.483 
333.969 
333.014 
385.953 
301.676 
314.18 
340.54 
341.661 
324.323 
313.12 
304.893 
340.841 
327.135 
307.335 
325.445 
290.04 
321.571 
328.384 
284.894 
323.331 
298.327 
308.905 
345.136 
326.995 
309.53 
363.697 
381.156 
335.301 
363.212 
343.053 
354.297 
351.823 
326.366 
316.525 
371.921 
327.067 
335.839 
379.05 
388.182 
314.454 
318.348 
353.114 
324.562 
370.805 
320.525 
363.37 
320.866 
321.108 
352.785 
288.745 
312.825 
336.506 
339.607 
335.224 
296.441 
321.438 
317.273 
278.165 
282.35 
342.538 
339.774 
347.291 
357.445 
309.113 
344.663 
350.312 
398.707 
399.695 
384.402 
303.241 
384.916 
393.337 
337.668 
383.339 
396.956 
334.032 
359.389 
398.174 
396.621 
333.418 
333.363 
394.333 
335.725 
382.348 
349.532 
351.352 
342.205 
379.315 
351.858 
373.374 
382.813 
346.824 
391.24 
324.02 
373.619 
332.647 
344.741 
379.415 
349.05 
332.699 
383.754 
362.139 
344.98 
351.897 
352.301 
336.516 
398.549 
358.046 
379.903 
362.324 
377.629 
367.137 
349.4 
408.625 
387.127 
337.81 
370.566 
352.552 
377.516 
350.844 
373.161 
311.575 
345.239 
372.814 
357.318 
349.625 
366.681 
378.805 
357.404 
354.988 
356.63 
344.975 
388.57 
382.777 
382.003 
381.334 
402.913 
364.845 
398.028 
427.789 
398.993 
347.432 
341.984 
325.618 
361.429 
371.614 
338.908 
384.322 
411.29 
379.16 
384.297 
353.025 
373.297 
383.986 
382.593 
346.824 
369.721 
365.553 
356.25 
374.55 
357.494 
369.204 
405.097 
395.248 
403.207 
389.28 
379.811 
412.753 
422.919 
404.278 
379.899 
359.848 
411.767 
370.04 
377.685 
369.033 
367.04 
379.043 
352.946 
362.625 
433.674 
410.861 
364.2 
348.278 
375.62 
433.932 
318.661 
353.095 
357.294 
366.082 
319.297 
364.135 
365.053 
366.286 
373.536 
366.101 
329.222 
381.556 
367.178 
330.411 
382.598 
394.935 
354.078 
394.523 
349.544 
364.64 
409.17 
375.231 
341.408 
402.415 
396.774 
374.416 
409.885 
423.755 
339.603 
354.102 
400.025 
410.001 
346.705 
390.746 
385.191 
387.518 
393.986 
390.887 
382.191 
385.989 
376.087 
406.894 
448.917 
391.857 
451.951 
418.292 
403.401 
382.481 
415.881 
384.513 
411.349 
425.716 
422.187 
422.961 
406.891 
391.816 
383.519 
374.987 
364.937 
394.616 
439.398 
391.589 
453.541 
388.164 
448.535 
435.879 
366.637 
411.077 
343.282 
410.576 
387.416 
354.925 
348.291 
390.754 
400.48 
366.226 
405.171 
411.414 
419.964 
357.213 
392.837 
356.467 
313.132 
385.382 
328.517 
410.903 
394.378 
402.34 
367.231 
390.052 
388.044 
435.722 
340.933 
399.264 
442.679 
381.967 
442.397 
360.162 
412.736 
400.233 
389.28 
374.898 
376.202 
399.093 
393.641 
407.136 
462.638 
390.95 
427.39 
397.878 
417.284 
435.348 
387.017 
402.457 
424.49 
432.022 
420.332 
425.768 
452.724 
401.96 
390.278 
353.859 
467.401 
461.094 
392.049 
384.561 
472.935 
425.63 
473.9 
397.322 
405.515 
391.528 
386.956 
404.063 
377.135 
409.812 
382.78 
474.126 
423.576 
396 
384.88 
394.821 
423.099 
398.802 
438.979 
498.539 
436.561 
443.231 
409.414 
423.997 
424.341 
410.521 
410.856 
388.406 
389.164 
369.648 
363.517 
392.375 
459.128 
376.811 
420.616 
390.165 
444.496 
413.886 
377.775 
380.007 
443.785 
399.403 
429.951 
446.472 
453.515 
402.588 
381.736 
372.819 
423.871 
424.934 
379.752 
391.429 
435.982 
433.145 
365.955 
412.592 
413.596 
466.385 
387.43 
429.124 
452.937 
410.627 
459.595 
415.361 
490.778 
427.77 
490.375 
393.426 
435.605 
453.764 
423.932 
461.53 
456.633 
467.358 
463.281 
412.956 
417.361 
443.966 
446.801 
381.124 
406.434 
433.709 
401.065 
365.046 
409.124 
393.703 
417.062 
424.023 
381.716 
372.099 
389.457 
439.864 
431.3 
403.018 
449.38 
440.515 
443.94 
451.424 
457.245 
509.423 
417.935 
422.316 
422.559 
423.443 
428.856 
394.818 
398.225 
405.26 
430.09 
479.965 
433.671 
406.404 
441.488 
435.686 
378.271 
454.827 
439.155 
425.819 
510.944 
437.283 
427.036 
502.485 
504.286 
486.309 
497.339 
449.374 
403.71 
477.046 
482.923 
462.005 
514.61 
491.362 
511.696 
519.617 
483.016 
514.494 
456.581 
433.604 
431.13 
457.583 
441.986 
456.567 
443.641 
455.18 
419.724 
421.002 
445.014 
383.174 
404.209 
374.467 
403.039 
415.142 
429.61 
450.157 
446.789 
430.562 
401.597 
408.55 
449.86 
456.451 
417.013 
506.582 
420.962 
423.412 
396.442 
467.532 
491.854 
471.008 
430.41 
501.623 
467.403 
434.735 
424.733 
442.321 
509.796 
474.395 
423.869 
418.455 
448.602 
472.91 
496.41 
487.385 
457.255 
469.28 
438.027 
465.639 
496.595 
400.118 
482.354 
472.362 
487.763 
447.692 
432.465 
443.205 
453.3 
381.194 
471.851 
430.535 
463.294 
506.518 
483.019 
447.812 
426.732 
422.532 
418.135 
424.128 
485.914 
429.276 
378.44 
473.704 
449.939 
480.817 
460.256 
478.412 
471.113 
476.617 
436.063 
437.781 
448.151 
417.248 
422.644 
448.971 
420.31 
453.835 
450.567 
414.538 
427.364 
462.943 
495.587 
416.178 
458.657 
435.162 
426.306 
440.898 
417.502 
460.051 
441.252 
461.098 
466.289 
516.29 
425.986 
484.916 
432.768 
448.074 
402.407 
414.066 
436.416 
403.225 
468.026 
424.767 
424.753 
463.064 
495.591 
458.939 
414.644 
494.108 
481.476 
463.83 
501.848 
469.104 
435.062 
439.084 
439.501 
479.572 
471.878 
457.094 
498.805 
376.525 
420.485 
409.523 
482.412 
431.482 
417.403 
412.457 
471.31 
422.367 
449.298 
428.702 
493.015 
447.337 
481.374 
483.514 
500.365 
411.752 
477.815 
506.61 
473.737 
488.659 
444.132 
413.143 
445.392 
451.368 
429.244 
459.536 
429.233 
457.417 
443.243 
411.744 
432.501 
400.591 
396.328 
452.924 
475.21 
479.943 
456.581 
495.191 
473.804 
468.376 
446.096 
431.213 
429.951 
420.231 
477.501 
437.394 
427.528 
435.887 
395.287 
423.602 
366.475 
388.295 
455.208 
382.246 
441.075 
452.105 
480.292 
447.29 
457.89 
466.73 
472.94 
454.62 
478.036 
442.39 
373.24 
473.595 
446.48 
437.84 
395.894 
425.242 
508.456 
454.459 
424.083 
456.96 
428.957 
501.363 
470.805 
492.011 
461.843 
522.887 
472.155 
433.052 
452.202 
473.433 
509.71 
474.89 
417.746 
495.79 
465.558 
490.77 
524.764 
504.404 
478.988 
467.885 
485.45 
525.537 
492.075 
459.062 
420.13 
449.377 
443.465 
470.207 
456.967 
458.369 
466.602 
464.21 
530.364 
462.262 
466.434 
463.868 
456.944 
442.982 
425.403 
454.613 
465.96 
404.963 
467.683 
437.054 
443.552 
451.17 
468.393 
431.444 
425.763 
453.18 
375.621 
418.745 
449.673 
443.814 
460.261 
475.85 
493.788 
442.598 
466.328 
415.777 
433.504 
458.817 
415.438 
457.904 
435.203 
510.485 
434.248 
424.333 
405.566 
411.409 
419.044 
430.457 
419.312 
486.48 
448.035 
474.144 
495.723 
437.431 
445.817 
407.865 
493.737 
424.95 
522.565 
477.51 
494.55 
430.229 
471.027 
386.423 
410.513 
464.175 
494.27 
481.338 
459.582 
438.08 
539.894 
463.346 
480.16 
485.409 
498.736 
435.514 
506.82 
431.929 
489.19 
482.145 
462.378 
449.18 
420.238 
479.518 
467.408 
475.169 
486.896 
480.965 
457.323 
461.514 
457.522 
543.601 
467.418 
555.028 
458.304 
474.824 
563.008 
511.239 
521.663 
531.945 
498.07 
539.485 
485.951 
519.806 
439.308 
418.949 
443.218 
537.213 
503.873 
443.655 
502.738 
498.655 
538.657 
540.725 
449.19 
495.241 
520.721 
478.582 
519.19 
517.536 
495.06 
481.483 
432.325 
451.256 
474.916 
502.241 
513.043 
449.423 
456.641 
490.534 
520.814 
508.005 
517.647 
473.688 
453.356 
563.425 
485.374 
457.411 
513.052 
532.174 
492.051 
514.862 
442.372 
539.34 
496.55 
493.658 
454.475 
480.853 
543.971 
462.672 
499.963 
451.459 
544.355 
553.55 
463.42 
493.388 
467.509 
478.165 
471.285 
