ITEM: TIMESTEP
2100000
ITEM: NUMBER OF CELLS
1000
ITEM: BOX BOUNDS ss rr pp
0 0.004
0 0.01
-0.5 0.5
ITEM: CELLS f_temp1[*] 
313.492 
290.969 
326.487 
306.57 
292.046 
327.885 
332.852 
303.225 
294.978 
307.791 
301.326 
285.28 
275.114 
279.355 
295.8 
279.977 
308.213 
322.115 
328.504 
318.911 
316.453 
331.795 
325.95 
311.681 
294.921 
326.437 
300.878 
308.878 
314.247 
302.055 
318.486 
299.553 
326.61 
292.237 
309.769 
301.983 
307.278 
279.452 
329.394 
312.057 
306.703 
334.019 
320.469 
324.136 
345.97 
328.59 
306.157 
336.705 
336.306 
326.68 
361.419 
337.722 
311.401 
308.51 
333.98 
317.591 
347.243 
319.796 
323.494 
297.255 
319.144 
388.632 
313.217 
326.809 
341.66 
342.322 
326.15 
363.562 
298.336 
345.959 
339.098 
314.807 
310.53 
340.875 
298.927 
332.6 
318.954 
329.193 
319.976 
307.858 
332.121 
311.666 
308.715 
315.531 
301.253 
315.73 
319.472 
293.953 
324.265 
304.45 
347.901 
350.743 
360.828 
335.975 
311.74 
336.042 
339.599 
335.912 
350.661 
330.11 
296.161 
301.774 
329.221 
343.654 
315.252 
347.019 
304.835 
341.338 
308.003 
313.715 
333.655 
319.701 
315.36 
287.72 
309.128 
319.201 
316.435 
299.345 
313.474 
301.227 
333.076 
358.729 
335.709 
309.083 
318.997 
305.51 
334.658 
341.574 
334.259 
331.97 
311.559 
336.766 
322.656 
355.518 
339.432 
298.591 
332.353 
317.959 
343.307 
314.701 
349.205 
375.573 
337.304 
351.826 
314.838 
367.67 
341.367 
345.208 
327.145 
314.869 
318.334 
336.926 
362.988 
344.722 
355.916 
310.928 
323.004 
382.846 
301.901 
281.647 
313.162 
313.185 
299.386 
347.715 
329.212 
333.888 
305.402 
353.24 
321.373 
337.568 
356.829 
358.582 
307.851 
324.585 
373.061 
358.971 
346.234 
348.189 
344.912 
314.61 
334.18 
335.443 
313.64 
318.534 
326.136 
318.759 
331.238 
358.425 
313.157 
305.709 
354.409 
353.08 
342.561 
314.572 
318.281 
345.493 
336.102 
373.533 
364.25 
307.172 
287.168 
321.025 
363.372 
335.293 
335.494 
322.119 
332.812 
342.705 
320.804 
346.831 
339.852 
355.323 
314.608 
358.341 
297.659 
349.304 
336.633 
323.439 
314.725 
320.083 
346.535 
358.078 
312.656 
342.777 
332.336 
326.731 
325.196 
332.912 
289.64 
327.712 
335.494 
334.302 
314.895 
369.808 
345.061 
379.449 
347.646 
333.532 
329.779 
322.34 
282.338 
340.766 
335.148 
358.282 
359.331 
385.292 
335.558 
362.814 
385.497 
330.12 
306.532 
347.772 
380.106 
366.406 
414.805 
354.996 
388.424 
350.692 
337.177 
331.758 
377.269 
358.764 
357.879 
359.094 
343.801 
335.98 
348.165 
345.761 
366.504 
385.977 
346.476 
343.136 
377.53 
346.988 
389.086 
361.422 
380.951 
419.57 
383.625 
369.893 
321.665 
384.466 
365.204 
363.144 
384.313 
363.116 
365.323 
394.349 
443.308 
377.522 
377.732 
364.392 
394.352 
349.065 
348.477 
354.712 
421.18 
321.969 
365.114 
367.789 
339.833 
400.278 
384.376 
389.742 
381.766 
357.284 
400.584 
372.885 
322.114 
347.915 
361.499 
356.335 
345.345 
375.621 
379.958 
378.781 
373.587 
380.243 
394.502 
401.637 
388.19 
364.864 
351.205 
389.173 
307.18 
412.692 
339.805 
364.748 
381.89 
423.818 
337.238 
376.975 
335.342 
365.07 
342.818 
401.311 
372.747 
379.985 
330.191 
347.352 
337.196 
361.049 
356.437 
421.568 
400.914 
396.193 
373.788 
346.311 
356.075 
350.008 
419.747 
343.367 
345.389 
343.725 
344.308 
342.905 
349.341 
378.167 
360.608 
393.359 
353.77 
335.899 
333.325 
372.364 
415.904 
354.666 
388.42 
363.564 
367.567 
358.658 
399.615 
381.947 
384.048 
388.188 
348.995 
386.243 
322.115 
394.319 
342.161 
388.367 
359.101 
383.394 
380.888 
378.295 
375.21 
347.132 
401.074 
428.763 
405.755 
388.739 
386.656 
391.923 
401.313 
421.131 
424.548 
373.999 
429.172 
358.366 
385.346 
370.986 
344.012 
347.768 
338.11 
374 
370.284 
343.573 
377.188 
397.129 
360.242 
385.356 
340.685 
393.618 
356.648 
370.37 
375.031 
406.689 
402.183 
447.052 
411.201 
427.888 
401.751 
372.739 
459.468 
413.116 
379.696 
390.301 
420.283 
402.303 
391.344 
360.5 
396.871 
373.11 
373.382 
441.641 
392.424 
403.093 
441.533 
416.83 
445.151 
453.624 
404.686 
387.38 
446.039 
389.612 
435.577 
424.6 
345.146 
420.604 
358.966 
405.359 
406.202 
375.027 
393.552 
337.595 
456.904 
428.314 
360.47 
405.877 
455.315 
443.789 
447.682 
409.932 
388.076 
450.211 
429.711 
396.59 
398.381 
377.571 
414.169 
376.524 
373.591 
421.089 
399.499 
427.534 
361.221 
375.038 
378.815 
399.059 
424.066 
416.812 
426.727 
413.459 
394.369 
411.805 
389.97 
463.262 
426.66 
381.855 
412.159 
406.846 
430.51 
407.744 
445.83 
414.29 
368.002 
438.719 
383.561 
409.617 
384.794 
411.244 
394.139 
458.633 
378.252 
392.017 
402.211 
400.25 
410.921 
405.419 
415.061 
436.868 
409.163 
402.148 
422.316 
468.828 
389.973 
431.126 
458.019 
396.324 
397.889 
411.869 
415.031 
359.649 
368.089 
387.964 
402.335 
345.179 
368.404 
419.513 
443.171 
381.593 
398.372 
421.668 
389.687 
370.041 
373.167 
422.19 
403.143 
434.712 
458.865 
382.542 
352.592 
442.342 
405.749 
424.488 
400.454 
427.839 
453.459 
403.963 
455.231 
414 
455.006 
498.864 
398.08 
440.017 
422.974 
471.811 
424.589 
388.312 
453.004 
450.41 
425.834 
362.506 
440.104 
411.263 
398.698 
422.658 
395.723 
436.575 
465.237 
428.201 
359.493 
382.796 
448.596 
458.527 
450.724 
402.496 
497.72 
512.991 
399.95 
403.603 
468.166 
421.646 
415.592 
411.266 
456.157 
384.833 
409.448 
409.275 
424.843 
412.162 
422.235 
390.298 
483.427 
449.042 
438.499 
432.053 
426.627 
463.83 
403.706 
421.768 
416.797 
469.379 
439.109 
394.796 
423.693 
354.634 
454.824 
375.139 
438.615 
381.979 
463.56 
467.594 
424.861 
488.087 
448.924 
381.25 
406.96 
395.997 
390.596 
425.723 
452.01 
431.075 
417.579 
435.202 
448.994 
423.15 
447.73 
380.559 
426.022 
402.636 
390.378 
420.994 
417.372 
401.741 
459.585 
428.254 
405.31 
385.271 
412.955 
464.405 
362.4 
441.638 
415.553 
450.448 
395.685 
411.769 
401.466 
395.259 
388.39 
429.276 
386.029 
411.961 
486.909 
394.428 
440.511 
391.123 
416.586 
502.744 
403.086 
436.607 
388.239 
411.6 
432.852 
365.022 
453.556 
449.142 
462.37 
443.524 
440.137 
477.725 
377.093 
457.416 
382.124 
403.838 
404.652 
425.793 
440.087 
395.867 
367.366 
433.924 
445.812 
413.652 
397.965 
464.668 
427.778 
450.74 
440.109 
365.868 
409.77 
416.899 
455.475 
491.301 
419.399 
429.18 
467.407 
421.207 
429.552 
401.665 
449.244 
425.799 
460.344 
513.06 
510.823 
487.091 
412.044 
471.957 
463.816 
423.609 
432.88 
470.063 
438.168 
448.291 
509.965 
512.106 
488.149 
425.238 
409.447 
383.694 
491.386 
443.568 
442.889 
450.731 
409.801 
435.088 
461.038 
413.518 
493.422 
396.149 
449.17 
425.316 
433.584 
503.084 
437.944 
510.375 
461.464 
495.109 
406.718 
474.765 
456.615 
434.173 
431.495 
428.884 
417.482 
459.583 
445.011 
500.724 
450.673 
460.651 
449.833 
435 
463.966 
481.199 
456.145 
439.619 
429.187 
468.509 
479.454 
493.899 
494.56 
462.748 
433.946 
520.767 
453.008 
446.747 
448.062 
438.288 
455.401 
466.895 
481.686 
466.107 
436.366 
479.778 
573.172 
435.541 
458.198 
463.39 
483.484 
543.279 
488.606 
450.849 
475.955 
385.05 
443.885 
436.234 
502.221 
420.771 
489.338 
474.327 
479.11 
463.818 
471.668 
420.555 
474.55 
479.43 
475.452 
485.655 
408.896 
417.883 
480.37 
431.862 
497.974 
403.431 
467.595 
442.459 
436.664 
448.348 
487.858 
497.575 
417.731 
425.596 
462.001 
460.593 
471.515 
435.165 
481.656 
457.05 
476.966 
511.556 
490.692 
474.434 
549.649 
460.545 
524.171 
507.038 
498.172 
455.039 
464.712 
458.495 
448.951 
543.055 
513.817 
479.561 
439.749 
407.444 
501.454 
466.934 
483.05 
438.476 
472.269 
475.909 
490.393 
500.386 
499.434 
524.583 
513.516 
446.794 
454.735 
487.337 
505.598 
456.64 
507.338 
432.814 
452.142 
451.911 
435.171 
429.672 
459.401 
457.377 
442.901 
420.915 
460.224 
489.716 
445.792 
530.524 
463.134 
472.99 
442.192 
530.557 
503.238 
504.502 
438.47 
495.944 
449.987 
457.904 
438.409 
395.562 
444.718 
512.426 
505.815 
456.754 
452.119 
539.024 
541.318 
419.735 
453.775 
545.324 
475.789 
513.974 
514.156 
462.468 
494.704 
435.985 
520.021 
486.973 
560.675 
523.887 
492.386 
502.353 
504.234 
467.822 
568.733 
517.01 
466.598 
496.125 
502.679 
458.241 
447.785 
564.09 
471.118 
440.318 
555.823 
482.105 
468.195 
468.819 
510.256 
503.121 
494.86 
509.207 
477.676 
488.236 
565.06 
532.413 
498.636 
421.097 
508.805 
562.742 
482.671 
433.263 
497.094 
492.299 
445.903 
524.132 
484.518 
501.813 
538.67 
465.484 
546.574 
502.755 
511.521 
486.259 
527.068 
466.549 
523.835 
483.979 
482.347 
512.724 
499.232 
529.268 
480.016 
474.025 
402.523 
428.428 
496.42 
467.993 
468.943 
480.414 
479.935 
456.003 
445.473 
469.088 
438.201 
475.697 
457.907 
420.9 
451.299 
469.09 
529.506 
439.441 
457.85 
530.545 
463.476 
529.702 
463.203 
435.753 
473.6 
472.335 
485.54 
550.555 
446.871 
491.425 
494.798 
485.186 
545.961 
541.232 
518.933 
548.248 
526.601 
538.861 
567.33 
505.249 
490.413 
505.118 
488.014 
479.749 
563.292 
521.387 
491.123 
491.762 
553.994 
500.371 
