ITEM: TIMESTEP
3400000
ITEM: NUMBER OF CELLS
1000
ITEM: BOX BOUNDS ss rr pp
0 0.004
0 0.01
-0.5 0.5
ITEM: CELLS f_temp1[*] 
314.011 
287.319 
322.088 
323.395 
320.715 
288.814 
296.42 
292.525 
293.954 
297.766 
293.479 
283.515 
280.223 
294.347 
258.193 
291.399 
281.798 
289.788 
287.834 
277.465 
305.721 
278.51 
337.591 
296.662 
271.806 
281.445 
289.696 
283.091 
264.914 
266.606 
282.295 
299.006 
269.742 
266.509 
288.325 
339.158 
326.379 
315.308 
318.965 
321.731 
315.32 
303.601 
314.113 
320.143 
291.245 
322.557 
317.362 
318.211 
288.202 
324.431 
341.041 
326.12 
310.085 
329.178 
340.372 
327.979 
316.809 
316.437 
377.555 
291.653 
317.979 
302.343 
296.11 
344.995 
329.316 
318.409 
313.215 
300.663 
370.681 
353.84 
316.576 
332.044 
362.209 
339.975 
290.554 
313.555 
313.96 
321.539 
345.95 
300.463 
337.491 
329.33 
336.692 
283.456 
326.57 
331.256 
329.529 
328.39 
309.909 
317.616 
356.551 
340.069 
316.12 
367.285 
291.68 
309.552 
352.804 
334.28 
344.112 
327.973 
359.593 
326.251 
315.338 
384.811 
337.471 
342.882 
353.6 
357.3 
313.737 
316.153 
357.974 
319.768 
305.15 
347.259 
318.729 
363.9 
345.745 
315.652 
359.58 
337.467 
335.81 
351.687 
328.661 
306.76 
335.528 
303.624 
337.986 
298.13 
333.416 
344.864 
321.432 
323.431 
311.821 
305.451 
343.342 
337.68 
371.408 
341.643 
349.9 
339.226 
324.95 
323.804 
328.983 
337.899 
340.567 
356.07 
378.871 
296.944 
333.565 
309.586 
373.687 
344.006 
329.654 
350.74 
357.773 
339.931 
332.113 
345.089 
370.89 
363.534 
328.019 
360.417 
359.072 
346.343 
365.637 
340.732 
346.727 
334.254 
352.282 
344.489 
363.19 
384.692 
361.005 
365.015 
359.385 
382.006 
386.919 
309.78 
367.113 
373.339 
345.845 
368.445 
368.114 
331.304 
330.312 
349.691 
330.097 
320.871 
322.513 
352.515 
352.289 
319.102 
329.822 
342.197 
292.484 
346.815 
336.166 
381.32 
360.998 
358.207 
361.337 
351.078 
372.169 
353.604 
347.653 
349.379 
356.278 
376.202 
328.645 
327.665 
353.57 
335.931 
366.758 
354.49 
364.18 
329.174 
379.624 
343.822 
353.528 
366.185 
338.652 
371.861 
345.546 
352.896 
353.057 
330.59 
352.357 
368.924 
322.305 
322.63 
349.555 
298.305 
340.797 
327.437 
320.74 
325.264 
373.298 
349.449 
344.533 
337.795 
330.038 
336.623 
393.065 
367.563 
368.412 
324.24 
329.456 
344.903 
364.008 
355.04 
409.813 
370.481 
400.949 
418.871 
389.895 
350.557 
404.739 
401.008 
352.378 
357.344 
356.775 
334.532 
379.351 
359.447 
350.037 
394.807 
424.402 
399.357 
354.415 
397.791 
391.278 
431.687 
419.377 
394.181 
398.39 
424.592 
415.39 
377.526 
391.593 
365.608 
440.451 
398.096 
381.828 
368.021 
376.964 
441.337 
426.926 
369.225 
364.225 
370.018 
425.041 
333.677 
362.876 
385.989 
333.003 
392.001 
362.566 
387.302 
386.491 
406.863 
386.928 
343.233 
359.592 
366.423 
373.946 
386.391 
399.874 
363.567 
393.146 
362.805 
338.527 
341.124 
354.398 
361.144 
400.709 
380.313 
373.707 
404.326 
364.109 
392.732 
391.929 
346.882 
338.873 
322.706 
328.505 
373.392 
336.145 
357.666 
342.488 
344.212 
359.184 
359.937 
368.968 
326.614 
354.784 
326.596 
331.519 
336.362 
352.513 
319.15 
367.628 
374.865 
364.007 
363.172 
391.01 
334.67 
356.626 
356.27 
372.641 
348.967 
327.678 
366.663 
373.239 
371.864 
402.561 
397.525 
388.348 
362.102 
380.361 
341.663 
374.432 
374.005 
347.671 
374.371 
362.895 
363.878 
412.329 
344.199 
372.539 
406.244 
384.933 
384.468 
384.623 
399.492 
371.475 
399.673 
395.105 
398.195 
418.954 
375.306 
412.762 
445.2 
413.565 
415.014 
394.025 
386.811 
355.676 
383.986 
391.78 
401.344 
354.806 
362.528 
375.758 
347.802 
403.599 
375.132 
377.663 
402.706 
362.866 
383.871 
406.076 
373.96 
356.134 
353.561 
290.985 
357.862 
350.898 
370.738 
405.079 
393.25 
410.717 
403.918 
374.148 
405.714 
399.76 
378.967 
434.878 
401.231 
392.209 
417.374 
404.18 
384.86 
444.093 
462.9 
395.95 
371.94 
419.293 
393.876 
398.157 
457.611 
378.953 
359.05 
423.273 
429.925 
362.295 
408.037 
343.109 
412.482 
407.636 
423.994 
374.132 
455.75 
378.099 
389.832 
428.345 
450.332 
398.908 
402.866 
384.608 
358.336 
457.678 
384.139 
387.238 
452.642 
368.191 
382.982 
388.759 
328.335 
370.617 
346.896 
350.157 
326.247 
334.974 
385.393 
357.916 
390.656 
417.216 
446.766 
428.836 
360.237 
430.641 
422.32 
453.494 
412.552 
420.614 
415.988 
465.836 
427.729 
427.182 
446.535 
413.03 
475.08 
439.674 
418.645 
451.423 
399.631 
441.379 
388.401 
453.906 
400.6 
406.22 
427.546 
492.667 
382.427 
432.421 
397.868 
413.835 
454.593 
406.671 
412.801 
439.812 
359.208 
435.963 
441.747 
404.853 
391.67 
446.467 
411.286 
413.303 
474.872 
435.995 
515.443 
420.619 
490.988 
453.139 
368.957 
431.947 
422.335 
432.935 
386.658 
439.419 
406.271 
440.324 
450.875 
410.355 
411.631 
414.06 
422.415 
437.066 
406.331 
430.828 
404.794 
401.663 
399.33 
434.062 
439.972 
414.451 
431.909 
393.28 
408.644 
392.98 
478.332 
465.737 
436.437 
417.505 
393.706 
359.336 
429.961 
379.557 
381.573 
397.79 
394.16 
393.739 
410.98 
410.451 
416.854 
453.122 
419.333 
417.432 
407.462 
426.815 
430.87 
422.692 
411.204 
429.668 
468.426 
428.949 
459.397 
447.134 
418.782 
424.461 
448.423 
402.644 
450.052 
467.178 
426.397 
424.019 
422.05 
431.857 
396.473 
466.949 
457.255 
408.107 
409.777 
414.265 
389.431 
471.716 
387.875 
446.091 
433.104 
393.111 
447.594 
421.277 
415.307 
357.096 
410.645 
432.786 
369.628 
426.776 
416.583 
432.292 
438.373 
396.402 
426.006 
408.15 
457.067 
441.495 
428.524 
427.663 
418.414 
440.436 
366.911 
445.966 
461.02 
475.512 
403.202 
417.009 
481.084 
357.567 
480.589 
440.184 
463.459 
435.799 
392.914 
344.864 
378.373 
415.957 
365.697 
431.265 
430.896 
367.948 
385.677 
444.473 
420.408 
405.412 
434.997 
489.788 
403.181 
452.648 
455.935 
420.049 
418.944 
407.077 
412.61 
451.689 
430.154 
458.132 
438.753 
463.29 
506.42 
420.34 
373.537 
443.062 
409.889 
457.71 
484.333 
441.962 
460.067 
442.41 
439.767 
477.492 
430.044 
452.427 
475.304 
384.831 
467.965 
410.965 
444.813 
396.425 
448.846 
442.408 
463.52 
488.953 
535.369 
397.082 
436.12 
379.221 
448.884 
420.724 
423.474 
398.454 
462.306 
554.667 
443.012 
377.607 
424.794 
466.461 
495.244 
429.052 
431.433 
402.909 
490.747 
436.431 
440.534 
402.713 
460.646 
462.465 
456.808 
425.456 
479.454 
445.075 
418.954 
447.063 
494.257 
474.052 
398.88 
418.236 
400.742 
413.539 
382.048 
457.361 
422.225 
431.589 
353.789 
459.296 
399.467 
397.867 
370.251 
429.246 
452.266 
430.236 
432.105 
408.494 
481.871 
404.166 
446.763 
414.971 
439.285 
435.249 
447.279 
401.758 
496.401 
450.483 
418.197 
449.47 
484.258 
492.693 
512.162 
460.103 
411.882 
424.423 
406.847 
416.027 
402.842 
450.034 
391.099 
409.548 
421.433 
452.294 
410.384 
426.296 
467.677 
458.43 
445.416 
398.192 
459.305 
459.399 
463.348 
458.659 
423.594 
503.019 
457.315 
449.445 
467.422 
476.749 
526.19 
459.222 
450.009 
456.974 
447.547 
460.014 
499.139 
396.307 
473.175 
455.65 
478.472 
439.895 
454.824 
432.502 
442.976 
359.051 
492.208 
453.925 
429.605 
455.143 
472.391 
418.228 
387.853 
423.97 
590.64 
450.583 
484.934 
467.103 
425.505 
503.795 
424.988 
387.661 
464.109 
436.564 
503.001 
492.608 
463.905 
498.767 
482.236 
435.854 
494.763 
436.706 
461.137 
440.935 
395.164 
429.228 
451.435 
537.129 
494.444 
457.027 
442.435 
451.928 
445.68 
459.381 
494.039 
494.661 
448.563 
483.151 
463.049 
512.372 
397.938 
440.558 
409.615 
367.616 
481.415 
422.278 
474.868 
503.952 
411.284 
484.503 
519.251 
529.832 
543.204 
442.087 
494.02 
449.129 
477.444 
487.062 
416.737 
461.726 
441.393 
501.335 
495.585 
508.198 
479.815 
476.02 
478.829 
496.803 
484.192 
465.27 
497.876 
499.167 
435.872 
443.752 
488.815 
517.958 
450.44 
448.795 
465.79 
534.157 
476.779 
522.586 
429.289 
434.239 
485.83 
448.571 
477.798 
492.016 
441.206 
517.717 
471.311 
485.69 
474.251 
448.645 
496.271 
440.809 
511.789 
471.167 
494.081 
476.451 
438.377 
468.538 
473.65 
494.339 
490.783 
471.217 
440.104 
410.145 
440.453 
439.592 
501.293 
436.201 
463.143 
533.399 
522.827 
494.917 
465.052 
466.692 
482.021 
433.695 
484.557 
462.963 
567.197 
495.253 
482.864 
528.705 
524.752 
507.795 
450.74 
530.501 
506.522 
485.081 
479.7 
494.791 
430.419 
515.678 
477.802 
478.906 
515.202 
495.302 
537.891 
483.083 
555.594 
444.126 
496.031 
472.254 
472.088 
461.224 
514.087 
497.124 
523.135 
496.177 
505.395 
471.87 
429.708 
432.776 
469.222 
477.258 
476.769 
465.783 
462.322 
476.868 
495.55 
520.641 
488.254 
460.886 
491.29 
563.906 
502.109 
526.817 
535.895 
540.731 
545.021 
575.197 
573.105 
514.78 
514.822 
505.882 
552.483 
522.271 
501.916 
413.81 
466.42 
471.78 
439.416 
495.205 
553.921 
525.906 
517.36 
497.948 
534.249 
487.71 
497.597 
569.366 
479.46 
547.478 
544.616 
535.548 
612.003 
555.639 
573.964 
499.092 
526.944 
490.312 
542.369 
503.329 
486.68 
509.578 
481.068 
550.225 
494.394 
544.107 
538.072 
519.847 
456.011 
