ITEM: TIMESTEP
1500000
ITEM: NUMBER OF CELLS
1000
ITEM: BOX BOUNDS ss rr pp
0 0.004
0 0.01
-0.5 0.5
ITEM: CELLS f_temp1[*] 
276.331 
265.564 
299.639 
296.33 
281.512 
329.255 
305.532 
295.144 
304.599 
302.792 
302.333 
285.455 
317.679 
317.084 
341.947 
322.461 
331.537 
318.862 
312.574 
296.072 
351.142 
315.725 
283.709 
333 
324.266 
322.337 
332.391 
324.657 
314.12 
306.522 
345.179 
321.34 
366.392 
280.484 
318.656 
341.909 
301.932 
297.138 
309.935 
304.272 
325.466 
337.918 
324.732 
304.124 
302.235 
313.57 
328.901 
305.171 
313.587 
297.725 
348.334 
325.464 
292.146 
278.777 
305.925 
291.992 
263.253 
319.049 
309.791 
315.957 
284.13 
293.848 
300.103 
330.895 
309.602 
341.565 
332.87 
314.033 
310.267 
318.506 
324.59 
285.728 
303.36 
332.156 
347.616 
315.62 
320.508 
339.233 
332.891 
334.13 
325.952 
308.681 
379.324 
315.772 
301.751 
338.233 
376.51 
292.798 
338.106 
331.687 
316.465 
322.02 
347.714 
318.437 
303.818 
301.036 
308.802 
344.261 
377.896 
324.642 
322.524 
306.565 
323.292 
310.267 
323.388 
310.027 
319.288 
319.74 
291.713 
328.793 
336.15 
313.263 
300.351 
277.442 
363.488 
332.869 
316.561 
285.273 
324.077 
301.044 
344.475 
334.674 
290.687 
317.813 
310.996 
319.1 
301.026 
306.372 
325.037 
328.614 
322.995 
315.719 
316.441 
327.231 
346.462 
339.168 
364.028 
346.942 
343.694 
338.086 
340.273 
312.144 
333.975 
328.909 
345.533 
364.486 
309.624 
384.57 
324.426 
336.509 
374.757 
326.557 
372.373 
316.764 
358.449 
390.454 
341.957 
356.907 
321.915 
359.495 
312.759 
382.168 
350.244 
348.692 
363.986 
354.86 
367.728 
347.507 
340.674 
329.131 
341.802 
349.434 
352.003 
327.448 
322.424 
347.463 
324.665 
352.207 
324.89 
334.766 
370.043 
349.994 
329.676 
320.862 
346.235 
395.775 
392.505 
348.866 
333.162 
365.046 
326.636 
358.56 
397 
371.466 
334.826 
329.496 
393.878 
363.322 
338.441 
307.716 
374.807 
371.714 
333.611 
362.668 
324.053 
338.116 
327.69 
392.789 
344.956 
350.163 
371.583 
355.257 
359.098 
309.756 
352.054 
370.51 
352.904 
342.307 
379.374 
346.785 
375.645 
370.443 
339.155 
347.988 
374.614 
354.784 
351.674 
328.255 
373.39 
366.807 
342.973 
345.568 
309 
350.885 
327.93 
374.68 
348.266 
314.81 
381.158 
341.173 
376.582 
310.27 
358.739 
289.861 
375.584 
318.518 
323.33 
339.342 
325.527 
359.896 
376.286 
401.622 
327.069 
347.101 
329.893 
343.163 
352.915 
354.938 
353.976 
345.392 
344.233 
351.282 
365.93 
356.025 
397.404 
362.854 
284.073 
334.901 
355.967 
341.663 
347.194 
330.39 
318.846 
365.051 
360.581 
367.13 
387.359 
363.333 
343.655 
388.922 
365.265 
371.256 
379.562 
342.132 
352.89 
343.428 
357.924 
368.6 
362.108 
337.691 
383.638 
352.267 
338.436 
382.181 
378.393 
363.919 
370.351 
373.18 
365.619 
357.052 
362.064 
378.942 
345.041 
347.063 
345.867 
363.42 
359.974 
412.098 
409.633 
336.021 
397.984 
386.955 
381.907 
366.944 
346.098 
354.443 
366.606 
371.013 
350.914 
367.182 
385.039 
355.928 
406.852 
332.347 
375.448 
341.491 
346.977 
329.853 
361.102 
323.822 
335.704 
407.438 
354.608 
365.318 
340.638 
360.662 
356.317 
364.442 
348.181 
378.865 
353.888 
409.984 
375.573 
352.506 
366.302 
384.763 
326.732 
360.683 
291.979 
377.499 
392.781 
368.625 
358.704 
338.112 
337.038 
348.778 
412.948 
393.721 
380.378 
347.933 
345.325 
377.542 
363.723 
343.119 
351.378 
408.496 
406.824 
420.542 
385.261 
348.763 
395.739 
368.989 
371.535 
370.287 
376.061 
401.403 
411.454 
399.232 
391.618 
351.827 
365.443 
350.956 
334.902 
395.209 
357.205 
349.972 
345.81 
416.718 
412.915 
420.654 
402.045 
386.054 
368.937 
410.187 
407.725 
460.333 
384.226 
446.178 
425.383 
385.417 
438.079 
399.008 
402.328 
374.505 
394.063 
400.226 
365.959 
408.612 
409.371 
475.998 
448.32 
438.876 
418.98 
402.261 
439.252 
383.991 
412.353 
443.294 
427.901 
378.312 
416.009 
446.723 
390.013 
410.203 
411.287 
386.624 
378.387 
402.953 
382.418 
430.838 
424.437 
355.754 
413.252 
386.191 
350.416 
366.111 
402.039 
388.362 
358.482 
365.787 
395.391 
397.757 
367.906 
374.796 
404.379 
361.249 
387.301 
371.804 
360.672 
402.772 
385.272 
385.567 
367.697 
345.149 
377.093 
402.156 
399.614 
433.774 
383.562 
368.834 
425.797 
348.842 
407.129 
412.756 
404.146 
372.924 
407.958 
394.508 
391.408 
406.137 
426.611 
433.134 
460.037 
444.605 
404.716 
434.298 
429.699 
448.973 
432.815 
380.557 
430.571 
391.65 
431.392 
396.399 
434.784 
366.944 
387.703 
457.857 
405.823 
396.318 
401.293 
445.771 
450.497 
373.557 
422.679 
439.056 
369.362 
410.803 
441.653 
405.916 
386.153 
432.794 
401.833 
404.497 
422.79 
392.693 
385.527 
414.775 
366.213 
427.133 
416.88 
404.341 
484.044 
384.616 
433.326 
359.93 
413.716 
442.724 
427.751 
365.809 
375.943 
422.509 
399.945 
447.009 
432.598 
390.141 
415.684 
372.316 
399.242 
368.03 
406.309 
379.509 
394.393 
354.614 
352.876 
375.506 
411.513 
472.227 
391.345 
398.55 
376.365 
377.456 
348.476 
374.384 
397.523 
459.77 
382.052 
411.634 
433.498 
388.838 
419.752 
427.717 
382.639 
490.94 
452.684 
424.807 
403.907 
369.576 
409.152 
416.829 
342.751 
413.278 
410.351 
390.651 
360.112 
377.611 
395.695 
408.906 
406.972 
366.834 
398.909 
398.469 
382.872 
452.928 
382.82 
400.075 
424.052 
421.141 
352.132 
409.724 
392.862 
412.249 
428.739 
395.232 
451.57 
460.41 
377.207 
373.303 
437.67 
402.621 
441.97 
386.075 
475.82 
380.864 
429.831 
361.395 
429.196 
430.864 
375.875 
423.694 
460.536 
391.418 
386.132 
388.122 
420.72 
452.509 
383.983 
408.207 
365.138 
383.798 
417.299 
431.112 
435.607 
440.384 
458.466 
449.949 
468.246 
478.152 
386.556 
407.04 
483.323 
448.589 
357.615 
398.679 
415.906 
440.462 
389.552 
378.362 
414.93 
410.995 
408.024 
424.576 
415.903 
417.436 
460.676 
471.082 
447.828 
406.198 
355.306 
435.068 
401.408 
431.747 
423.086 
427.945 
457.177 
408.414 
449.608 
402.254 
435.448 
401.977 
414.705 
480.258 
398.667 
429.236 
447.871 
466.795 
453.898 
439.299 
447.656 
471.534 
490.567 
435.739 
408.032 
436.58 
484.841 
431.63 
449.356 
468.235 
446.918 
443.533 
394.261 
402.481 
379.633 
429.474 
397.726 
450.041 
460.008 
472.992 
442.324 
413.001 
427.497 
416.293 
427.866 
453.007 
500.061 
451.527 
427.832 
403.811 
524.438 
495.232 
429.262 
477.358 
425.675 
507.432 
462.973 
484.185 
501.329 
474.087 
468.844 
446.631 
424.869 
392.385 
482.041 
474.827 
431.646 
497.92 
469.02 
494.82 
461.464 
464.765 
420.852 
458.891 
499.588 
432.707 
465.983 
472.192 
376.085 
501.076 
450.381 
459.196 
454.584 
440.048 
436.878 
386.463 
449.231 
430.217 
492.533 
431.998 
519.975 
420.554 
471.69 
462.13 
451.953 
454.949 
407.292 
445.894 
407.366 
465.357 
371.619 
422.564 
435.971 
412.641 
460.233 
497.865 
513.433 
434.094 
427.47 
478.878 
456.356 
482.372 
459.389 
518.309 
454.689 
412.042 
434.742 
483.064 
466.056 
463.766 
430.073 
468.571 
429.665 
439.594 
418.924 
528.963 
451.681 
477.934 
435.618 
457.746 
444.744 
408.044 
436.595 
466.969 
430.573 
445.402 
457.6 
461.953 
411.199 
442.339 
447.036 
443.238 
410.029 
444.786 
495.295 
390.813 
435.177 
437.181 
415.777 
439.442 
475.638 
447.094 
487.151 
457.577 
478.514 
415.776 
472.342 
485.956 
514.181 
466.704 
449.819 
494.442 
433.227 
472.35 
529.395 
464.772 
439.102 
488.784 
433.924 
472.106 
438.764 
494.392 
433.317 
406.462 
457.335 
411.046 
443.388 
498.727 
439.451 
456.313 
433.287 
454.078 
445.64 
457.985 
467.197 
493.176 
454.199 
485.391 
540.622 
447.749 
422.041 
409.187 
403.751 
462.811 
438.317 
434.974 
445.246 
500.945 
447.231 
465.038 
473.568 
515.729 
417.505 
468.946 
471.691 
457.48 
464.699 
526.043 
533.665 
425.349 
455.363 
474.879 
475.428 
487.737 
451.104 
469.514 
452.173 
517.237 
503.869 
527.401 
509.507 
482.793 
435.818 
430.778 
406.874 
486.462 
476.221 
490.015 
385.378 
502.899 
454.582 
409.465 
394.048 
413.976 
504.766 
507.538 
475.516 
527.999 
471.409 
501.698 
471.818 
484.198 
492.748 
410.439 
496.555 
473.015 
470.765 
446.006 
398.17 
387.348 
401.792 
403.97 
472.177 
450.588 
455.979 
442.929 
436.916 
446.838 
469.821 
453.422 
382.956 
404.249 
506.29 
493.281 
407.123 
456.993 
482.38 
516.828 
530.085 
471.065 
526.548 
517.749 
491.642 
459.411 
446.647 
529.4 
487.69 
505.779 
503.631 
481.685 
450.105 
494.004 
494.622 
496.601 
512.373 
509.424 
491.503 
494.151 
505.9 
418.773 
510.47 
476.382 
568.725 
446.834 
531.299 
459.345 
471.672 
473.652 
498.684 
488.133 
519.911 
463.461 
516.719 
486.905 
515.147 
445.305 
441.92 
537.723 
547.296 
559.04 
513.943 
466.262 
416.056 
504.356 
460.464 
539.54 
522.351 
438.925 
565.353 
480.657 
475.931 
465.717 
543.38 
497.702 
465.444 
507.982 
517.345 
479.182 
505.128 
522.596 
461.838 
385.679 
514.146 
485.09 
549.812 
510.207 
465.968 
543.194 
431.979 
448.273 
527.739 
548.11 
508.935 
489.717 
482.036 
529.427 
485.908 
493.311 
438.665 
491.425 
503.697 
524.003 
499.989 
507.217 
479.514 
522.964 
483.487 
428.045 
502.427 
516.32 
526.305 
428.453 
