ITEM: TIMESTEP
8800000
ITEM: NUMBER OF CELLS
1000
ITEM: BOX BOUNDS ss rr pp
0 0.004
0 0.01
-0.5 0.5
ITEM: CELLS f_temp1[*] 
282.506 
281.329 
276.895 
284.809 
272.978 
292.524 
271.978 
300.05 
308.236 
295.809 
323.614 
311.081 
320.519 
316.577 
337.247 
315.854 
320.423 
316.312 
318.072 
301.463 
320.481 
318.874 
324.161 
320.682 
297.122 
342.32 
340.11 
291.185 
306.871 
296.066 
333.983 
331.768 
281.442 
294.961 
313.924 
353.987 
344.533 
338.928 
317.7 
297.581 
331.928 
309.105 
325.636 
323.314 
317.708 
328.146 
336.474 
337.388 
313.285 
300.988 
304.548 
312.413 
283.495 
279.17 
314.722 
296.312 
314.585 
291.729 
326.205 
301.947 
334.24 
325 
323.926 
330.103 
319.611 
345.082 
356.515 
313.236 
375.034 
338.636 
324.468 
332.153 
327.413 
316.525 
330.01 
344.442 
339.365 
346.621 
320.84 
321.067 
321.513 
345.255 
336.212 
354.064 
336.43 
320.239 
329.916 
334.478 
347.868 
324.878 
351.569 
309.972 
325.132 
317.482 
318.118 
320.778 
329.974 
316.781 
343.142 
316.095 
326.412 
324.571 
314.741 
337.99 
321.576 
331.649 
291.89 
329.441 
273.588 
349.02 
336.944 
297.306 
349.45 
336.573 
331.764 
297.849 
312.989 
332.831 
327.467 
310.237 
368.021 
325.745 
318.52 
302.73 
341.88 
338.203 
289.366 
309.467 
338.745 
317.373 
306.773 
323.003 
364.089 
324.93 
335.113 
340.827 
312.776 
331.495 
345.199 
361.066 
352.641 
333.307 
361.603 
382.867 
352.532 
328.56 
365.956 
341.785 
311.831 
342.597 
387.585 
336.124 
329.51 
331.515 
345.181 
347.058 
344.171 
344.735 
334.158 
332.103 
334.652 
336.643 
331.91 
334.798 
353.305 
299.817 
303.577 
339.251 
307.13 
327.046 
339.224 
299.27 
313.941 
294.137 
329.953 
301.227 
359.378 
308.767 
320.814 
352.868 
309.252 
319.018 
304.028 
361.556 
395.389 
351.419 
336.875 
320.065 
349.826 
338.453 
310.873 
375.813 
352.683 
294.814 
344.942 
374.484 
330.317 
370.52 
357.811 
337.12 
353.763 
350.4 
376.216 
364.195 
339.207 
361.208 
356.353 
329.339 
349.874 
374.414 
352.182 
356.602 
333.683 
331.968 
327.927 
337.953 
323.846 
378.644 
365.485 
331.792 
334.633 
334.31 
356.029 
340.463 
347.9 
379.533 
345.334 
354.412 
355.609 
344.661 
385.485 
364.959 
394.109 
375.896 
402.882 
364.698 
391.321 
342.214 
375.356 
358.876 
393.201 
361.512 
374.179 
395.699 
339.451 
388.531 
400.986 
382.102 
376.832 
355.567 
363.435 
363.943 
349.071 
312.961 
364.847 
356.169 
381.939 
404.893 
421.961 
364.811 
403.401 
366.589 
340.288 
347.139 
417.366 
362.486 
362.293 
347.967 
371.582 
330.375 
341.207 
346.476 
333.765 
353.956 
383.399 
347.542 
380.696 
370.751 
359.081 
347.09 
323.312 
367.807 
355.407 
355.988 
380.706 
341.963 
342.726 
375.232 
339.62 
379.715 
341.069 
354.551 
346.57 
359.348 
351.719 
475.078 
426.201 
404.58 
422.144 
369.301 
335.624 
376.55 
366.011 
400.768 
413.169 
375.758 
375.44 
389.984 
388.051 
337.661 
360.356 
389.865 
406.225 
394.902 
360.699 
413.786 
376.123 
397.038 
370.841 
369.65 
386.293 
371.388 
342.641 
359.841 
359.846 
363.722 
359.211 
444.64 
384.32 
355.365 
390.352 
388.234 
425.096 
365.211 
389.889 
351.049 
390.427 
431.665 
376.052 
358.914 
399.469 
374.525 
394.732 
385.385 
408.142 
335.563 
366.581 
378.559 
375.871 
382.418 
365.974 
378.503 
348.157 
385.054 
365.795 
400.118 
366.368 
358.016 
359.178 
358.272 
377.083 
338.249 
397.365 
372.022 
369.941 
347.592 
344.099 
406.323 
316.298 
376.678 
388.713 
403.097 
367.222 
394.668 
397.092 
395.017 
383.827 
399.022 
413.428 
329.653 
349.101 
445.03 
379.278 
415.198 
392.176 
361.854 
378.695 
462.662 
344.085 
361.825 
370.004 
374.324 
355.96 
422.76 
406.79 
368.778 
357.008 
385.53 
369.363 
379.552 
364.497 
417.332 
421.269 
399.378 
418.861 
343.173 
375.414 
354.656 
352.191 
356.907 
356.795 
394.037 
371.144 
417.95 
325.945 
351.667 
330.752 
363.287 
353.355 
375.021 
381.911 
352.352 
344.805 
373.116 
354.785 
380.916 
389.848 
374.821 
376.327 
425.762 
387.747 
414.702 
393.537 
379.136 
370.839 
416.176 
358.241 
435.514 
392.538 
373.828 
370.417 
377.328 
374.889 
342.769 
341.392 
411.154 
408.34 
375.437 
404.358 
388.984 
405.025 
382.248 
407.87 
399.477 
364.68 
387.25 
423.396 
386.532 
339.205 
375.731 
391.492 
447.397 
408.863 
415.712 
368.885 
369.061 
394.11 
380.549 
403.415 
386.781 
384.848 
390.579 
382.318 
414.306 
395.974 
434.991 
399.827 
398.635 
418.011 
417.908 
393.976 
381.905 
397.491 
458.579 
370.656 
429.862 
369.042 
407.91 
396.763 
396.503 
353.856 
397.826 
444.234 
422.366 
405.938 
402.097 
453.124 
416.928 
378.371 
368.878 
453.212 
380.767 
379.479 
407.605 
383.33 
394.562 
402.261 
489.313 
430.697 
358.553 
398.173 
396.304 
423.33 
401.775 
459.985 
364.85 
414.111 
408.484 
390.876 
421.127 
441.221 
375.789 
439.538 
363.926 
433.293 
436.644 
451.25 
434.806 
453.175 
376.945 
412.924 
473.431 
357.959 
426.015 
393.014 
426.744 
430.559 
413.659 
434.44 
430.505 
415.183 
415.124 
377.808 
404.42 
431.336 
353.628 
392.672 
449.342 
393.241 
461.726 
432.222 
432.04 
416.452 
449.464 
391.07 
411.877 
370.055 
386.29 
394.641 
379.347 
403.863 
419.862 
376.92 
412.04 
430.656 
402.902 
385.453 
387.655 
419.644 
464.872 
390.325 
432.047 
409.623 
409.174 
399.896 
380.81 
431.908 
391.576 
416.96 
444.119 
425.359 
430.258 
428.057 
438.26 
458.184 
416.334 
412.538 
477.643 
373.247 
384.059 
410.267 
485.38 
379.446 
459.143 
487.126 
466.593 
467.201 
478.916 
408.697 
470.388 
416.844 
415.342 
406.922 
458.794 
437.856 
403.75 
365.787 
393.687 
458.86 
446.693 
381.801 
431.511 
402.012 
440.263 
456.814 
440.565 
452.03 
466.102 
466.406 
472.071 
429.37 
365.757 
448.915 
426.876 
491.543 
435.356 
450.546 
460.956 
423.338 
454.412 
499.613 
462.945 
463.514 
479.764 
438.258 
522.406 
472.595 
426.191 
402.361 
458.345 
460.219 
427.15 
454.973 
488.305 
474.504 
446.854 
439.227 
531.2 
429.447 
415.494 
467.165 
386.773 
428.5 
444.13 
442.103 
449.46 
428.564 
465.503 
433.226 
412.863 
438.233 
439.216 
438.167 
388.37 
448.984 
408.521 
513.46 
438.074 
485.759 
434.382 
508.917 
530.237 
475.104 
444.912 
484.967 
425.78 
499.104 
447.127 
457.259 
474.69 
408.02 
511.491 
473.261 
409.451 
482.882 
453.015 
423.392 
456.802 
480.743 
442.544 
443.429 
439.539 
429.683 
472.255 
426.964 
477.222 
427.517 
478.52 
474.839 
497.895 
473.938 
447.932 
433.969 
421.728 
415.351 
550.949 
504.857 
425.41 
470.178 
452.6 
464.545 
476.554 
434.087 
481.436 
492.581 
448.721 
477.117 
465.942 
385.881 
480.287 
442.735 
506.172 
428.668 
466.67 
489.903 
466.097 
456.392 
483.067 
440.903 
404.001 
441.759 
453.146 
420.16 
435.51 
408.042 
450.836 
433.94 
466.533 
450.331 
401.974 
456.87 
445.738 
433.737 
470.651 
417.458 
413.909 
424.64 
418.571 
447.192 
457.475 
419.184 
421.435 
464.627 
383.557 
438.067 
484.879 
475.747 
461.594 
420.953 
473.559 
434.064 
457.284 
459.192 
535.164 
525.709 
385.28 
536.641 
504.141 
462.555 
492.353 
469.802 
463.757 
519.354 
480.093 
514.506 
488.153 
389.973 
504.621 
463.365 
457.875 
493.31 
489.695 
451.839 
456.949 
464.194 
523.805 
425.849 
465.014 
521.949 
466.909 
540.903 
543.564 
487.854 
462.486 
451.782 
532.901 
468.582 
443.363 
452.456 
502.333 
498.91 
469.703 
505.184 
425.605 
443.027 
511.52 
435.128 
419.659 
465.457 
455.657 
508.684 
430.011 
404.695 
433.353 
431.105 
411.949 
532.81 
458.372 
531.201 
463.554 
442.314 
522.689 
478.949 
453.678 
529.588 
511.862 
503.649 
398.014 
445.803 
477.037 
516.739 
484.861 
444.61 
488.575 
502.302 
445.304 
445.506 
448.721 
446.742 
465.592 
503.333 
483.518 
445.923 
407.088 
482.121 
438.403 
424.453 
431.012 
453.903 
450.403 
475.684 
427.927 
457.748 
446.906 
461.033 
493.305 
505.891 
503.793 
452.712 
462.756 
512.862 
516.525 
445.478 
505.381 
447.593 
500.135 
482.923 
493.644 
433.03 
445.289 
529.087 
435.158 
429.113 
419.878 
512.492 
569.414 
484.206 
468.225 
484.311 
453.728 
447.111 
497.66 
502.878 
503.566 
462.234 
479.648 
485.909 
461.16 
489.927 
493.591 
477.287 
454.946 
528.882 
484.3 
438.167 
514.011 
447.868 
536.858 
459.221 
447.786 
456.863 
430.806 
499.769 
455.632 
513.277 
480.576 
532.288 
481.765 
491.22 
514.719 
499.86 
515.303 
533.523 
559.172 
528.157 
472.847 
495.278 
470.745 
473.098 
444.207 
474.662 
567.456 
500.938 
566.614 
481.484 
457.379 
536.118 
550.899 
489.564 
478.16 
473.431 
564.196 
497.471 
530.036 
527.668 
555.427 
601.151 
514.406 
518.548 
459.893 
557.443 
554.801 
438.299 
531.045 
525.9 
536.741 
569.582 
501.318 
468.506 
484.717 
536.743 
523.769 
490.156 
565.561 
512.984 
491.975 
494.881 
506.377 
454.95 
478.872 
459.476 
488.964 
476.771 
495.413 
523.449 
451.722 
485.788 
492.918 
533.094 
517.127 
451.444 
540.01 
494.966 
607.654 
450.2 
544.43 
515.802 
489.356 
497.655 
463.914 
507.596 
446.203 
517.404 
495.672 
464.688 
476.53 
470.34 
465.169 
464.21 
470.326 
573.799 
501.234 
494.425 
526.29 
519.5 
491.247 
490.333 
481.802 
533.026 
529.905 
