ITEM: TIMESTEP
5000000
ITEM: NUMBER OF CELLS
1000
ITEM: BOX BOUNDS ss rr pp
0 0.004
0 0.01
-0.5 0.5
ITEM: CELLS f_temp1[*] 
286.137 
308.24 
282.799 
310.615 
285.786 
288.974 
306.548 
284.813 
292.636 
313.575 
309.383 
313.225 
316.159 
297.521 
324.41 
334.955 
289.361 
267.921 
293.462 
291.338 
281.554 
277.831 
291.483 
307.791 
288.207 
278.779 
271.823 
252.739 
241.32 
266.937 
281.226 
282.725 
253.668 
283.018 
281.55 
300.191 
288.055 
294.871 
300.929 
281.178 
297.739 
274.106 
276.115 
295.018 
290.978 
289.383 
292.07 
274.248 
301.437 
293.196 
299.832 
319.668 
288.429 
292.533 
293.263 
264.863 
277.008 
267.386 
300.016 
252.167 
312.738 
294.618 
319.541 
267.214 
296.987 
297.97 
267.682 
289.059 
311.449 
294.727 
284.829 
280.643 
306.733 
294.218 
329.871 
342.683 
330.557 
322.625 
348.867 
299.693 
351.882 
313.666 
316.453 
305.121 
312.628 
338.579 
321.346 
340.868 
291.813 
335.09 
345.79 
355.221 
319.764 
296.754 
281.097 
302.732 
332.011 
310.366 
305.14 
321.889 
326.834 
325.454 
308.469 
320.18 
321.301 
371.98 
329.36 
310.771 
355.376 
295.73 
348.952 
362.065 
338.755 
319.42 
298.268 
316.395 
337.197 
304.472 
318.689 
308.193 
296.731 
294.944 
311.781 
295.377 
297.589 
302.092 
331.715 
307.718 
307.907 
268.814 
353.208 
316.234 
332.044 
342.402 
278.295 
323.099 
311.686 
322.09 
310.414 
316.615 
278.967 
293.338 
329.251 
326.526 
281.649 
297.627 
301.372 
347.424 
315.409 
354.004 
310.496 
324.708 
359.868 
337.454 
313.237 
333.349 
328.425 
311.28 
317.422 
322.194 
368.495 
334.496 
324.848 
318.077 
304.374 
304.763 
343.381 
335.333 
346.569 
345.675 
318.784 
297.764 
321.112 
351.252 
334.236 
339.125 
329.159 
323.904 
306.663 
292.035 
294.474 
344.374 
325.623 
341.297 
352.111 
308.615 
355.095 
346.687 
343.313 
327.991 
351.504 
337.058 
354.136 
333.517 
340.695 
350.892 
349.789 
349.905 
338.769 
331.295 
333.642 
324.048 
364.441 
324.689 
375.41 
406.877 
345.102 
341.521 
354.006 
362.696 
346.107 
336.887 
331.441 
343.618 
381.64 
307.817 
377.42 
375.766 
378.281 
388.804 
335.538 
334.348 
429.564 
395.519 
349.493 
413.264 
373.453 
354.672 
342.571 
332.62 
312.794 
330.825 
350.728 
346.223 
348.829 
294.728 
340.936 
314.869 
330.236 
319.367 
370.23 
384.859 
351.81 
390.208 
345.056 
359.598 
339.831 
338.574 
324.378 
348.4 
363.917 
364.792 
325.409 
401.468 
335.438 
335.775 
327.505 
331.096 
330.577 
346.97 
389.194 
349.524 
306.826 
348.115 
382.65 
346.661 
353.631 
346.451 
365.62 
374.024 
380.145 
376.316 
328.198 
344.655 
412.821 
336.813 
326.151 
350.423 
360.872 
361.466 
368.714 
330.029 
321.613 
373.597 
370.701 
344.446 
323.915 
402.797 
338.467 
343.12 
369.362 
328.501 
381.262 
358.132 
343.615 
362.963 
350.222 
370.589 
378.708 
371.187 
346.568 
363.022 
403.327 
378.52 
362.325 
331.61 
376.012 
316.973 
362.479 
362.998 
332.709 
346.09 
353.484 
341.206 
348.958 
343.66 
373.186 
379.007 
378.081 
355.564 
378.05 
366.825 
357.165 
382.338 
402.995 
350.076 
357.579 
342.732 
359.922 
332.034 
378.279 
373.826 
380.599 
327.555 
349.776 
380.672 
425.375 
412.022 
380.164 
378.13 
356.137 
335.669 
385.273 
333.452 
344.104 
328.953 
358.762 
377.604 
392.691 
401.485 
365.874 
362.831 
389.204 
342.271 
378.277 
364.305 
334.737 
383.207 
370.478 
373.641 
361.057 
368.83 
341.456 
416.138 
363.754 
340.12 
402.266 
385.521 
405.104 
371.611 
345.761 
367.018 
365.458 
302.316 
332.511 
368.801 
345.808 
355.464 
369.19 
378.424 
373.006 
362.46 
366.207 
379.024 
355.719 
354.774 
380.257 
333.36 
373.722 
332.125 
386.819 
389.346 
370.562 
358.002 
371.799 
352.087 
371.626 
390.398 
392.255 
374.877 
358.603 
344.18 
324.162 
371.114 
345.981 
356.109 
354.952 
379.302 
394.311 
358.076 
332.672 
342.523 
340.799 
362.349 
385.488 
350.474 
394.866 
358.795 
388.272 
371.702 
382.844 
396.871 
348.63 
338.375 
381.937 
344.111 
385.176 
434.508 
368.124 
407.424 
408.708 
438.012 
412.957 
371.851 
359.404 
349.357 
402.653 
400.393 
341.934 
365.847 
326.915 
412.451 
375.83 
364.173 
377.217 
378.273 
458.68 
390.189 
407.164 
387.274 
393.327 
451.748 
346.182 
368.301 
386.408 
364.108 
411.617 
337.3 
376.541 
432.22 
389.244 
380.185 
442.762 
419.087 
386.273 
416.433 
405.791 
398.952 
414.358 
350.306 
364.638 
357.913 
410.929 
357.451 
362.824 
375.28 
397.294 
395.949 
361.094 
388.509 
422.982 
421.094 
376.415 
386.895 
388.703 
424.686 
395.605 
399.437 
409.79 
452.366 
377.147 
398.482 
385.836 
435.074 
350.684 
351.27 
368.647 
383.155 
412.134 
385.652 
396.011 
364.746 
384.926 
365.244 
414.538 
373.215 
415.736 
383.382 
406.725 
432.699 
405.161 
435.772 
394.146 
418.33 
428.853 
410.478 
385.27 
408.202 
424.025 
366.495 
450.522 
433.268 
416.831 
382.259 
418.131 
372.16 
412.402 
418.659 
387.358 
368.949 
390.067 
423.555 
431.737 
402.778 
418.675 
379.324 
426.929 
417.381 
405.041 
399.626 
474.409 
442.841 
404.715 
409.78 
436.504 
441.47 
471.542 
390.204 
422.163 
451.541 
423.351 
435.448 
493.663 
460.566 
408.595 
419.562 
469.537 
434.958 
426.774 
386.26 
376.897 
442.24 
450.059 
441.817 
431.092 
399.066 
401.431 
447.248 
377.925 
430.135 
449.944 
450.235 
425.858 
424.497 
407.94 
407.525 
447.093 
415.977 
439.076 
421.26 
456.868 
409.488 
445.802 
457.357 
399.44 
445.619 
432.113 
441.021 
423.37 
410.336 
397.126 
421.802 
430.104 
428.324 
464.488 
437.465 
410.172 
394.249 
426.892 
405.206 
456.909 
476.432 
417.872 
405.34 
442.193 
431.639 
342.927 
407.196 
512.351 
404.556 
414.668 
419.039 
385.079 
464.201 
449.825 
398.188 
477.843 
372.56 
440.906 
422 
382.092 
425.581 
402.151 
438.118 
429.788 
423.648 
421.906 
419.48 
439.546 
439.594 
494.887 
433.054 
459.38 
438.27 
414.505 
401.674 
439.365 
392.453 
432.941 
421.849 
415.457 
439.986 
497.884 
446.819 
413.356 
378.625 
424.079 
394.791 
448.113 
374.587 
417.211 
434.719 
426.415 
494.869 
461.52 
473.311 
421.275 
459.166 
467.493 
457.234 
476.642 
426.484 
427.718 
417.811 
465.264 
440.453 
409.152 
389.843 
415.912 
371.003 
450.256 
449.279 
474.656 
449.932 
462.409 
428.655 
421.994 
458.735 
467.391 
436.274 
466.139 
461.949 
482.321 
420.049 
383.098 
470.737 
431.171 
424.265 
427.426 
441.673 
444.767 
504.041 
469.864 
443.638 
424.078 
481.238 
443.126 
408.273 
461.45 
449.589 
495.494 
441.307 
450.245 
439.481 
441.384 
483.9 
422.938 
465.62 
503.479 
457.57 
401.506 
489.486 
427.66 
431.049 
391.693 
468.668 
422.706 
523.926 
456.268 
482.3 
482.954 
510.831 
466.85 
428.674 
444.232 
457.204 
430.444 
459.927 
384.011 
395.34 
450.368 
462.949 
390.559 
470.751 
418.223 
467.525 
472.053 
462.343 
443.893 
389.479 
439.85 
422.57 
461.008 
430.873 
456.188 
396.869 
431.303 
410.451 
407.764 
418.493 
465.539 
459.983 
506.29 
437.186 
414.275 
483.613 
480.297 
512.224 
417.517 
486.989 
437.889 
467.866 
438.984 
423.456 
447.132 
457.779 
539.778 
433.408 
434.417 
487.13 
476.758 
471.824 
483.626 
477.559 
449.157 
470.029 
467.426 
533.434 
489.932 
515.037 
486.893 
482.024 
415.908 
542.364 
559.419 
457.217 
491.61 
470.377 
429.532 
442.813 
509.687 
467.426 
527.6 
433.074 
443.508 
533.568 
466.187 
472.049 
499.228 
479.989 
469.225 
478.397 
524.332 
448.848 
463.738 
470.826 
458.703 
475.384 
452.263 
427.593 
418.633 
484.973 
489.194 
436.44 
416.616 
488.046 
445.049 
494.905 
450.589 
438.114 
444.061 
449.999 
475.571 
481.446 
506.79 
480.082 
432.513 
490.664 
435.593 
511.744 
467.692 
531.943 
458.688 
488.972 
501.739 
482.46 
532.218 
543.613 
464.381 
457.066 
509.573 
496.886 
436.611 
408.963 
437.098 
524.243 
411.998 
460.416 
514.33 
447.749 
537.607 
428.279 
421.134 
444.925 
451.694 
478.207 
437.612 
496.646 
499.089 
439.966 
462.447 
463.596 
467.404 
463.402 
435.27 
472.054 
505.167 
493.44 
457.032 
488.582 
481.005 
466.511 
485.527 
472.837 
519.072 
493.098 
445.815 
532.052 
485.179 
488.414 
509.892 
447.454 
463.047 
550.177 
551.566 
434.755 
535.589 
451.48 
485.681 
440.301 
500.869 
507.398 
554.628 
442.698 
528.956 
497.534 
536.166 
526.239 
564.485 
397.051 
460.093 
561.852 
499.369 
551.243 
440.067 
507.922 
503.722 
513.232 
465.757 
521.719 
518.702 
500.179 
459.238 
444.989 
489.415 
439.544 
502.764 
485.102 
449.256 
493.84 
482.752 
503.243 
460.559 
515.064 
481.011 
419.546 
506.201 
538.224 
526.023 
491.535 
464.904 
458.329 
425.012 
451.941 
437.61 
488.202 
452.966 
458.298 
485.298 
458.046 
499.162 
496.082 
486.097 
421.781 
451.586 
446.687 
485.8 
465.462 
444.212 
420.894 
398.42 
501.492 
449.747 
460.294 
526.043 
469.25 
528.403 
521.754 
535.992 
427.379 
528.011 
477.977 
446.234 
508.87 
457.853 
478.003 
525.398 
526.877 
498.615 
467.658 
460.102 
486.24 
598.322 
437.349 
496.984 
532.29 
516.213 
466.207 
527.426 
516.231 
521.283 
543.989 
530.199 
471.84 
486.763 
573.643 
534.34 
505.331 
545.87 
478.083 
494.323 
526.013 
506.421 
467.123 
463.757 
508.718 
505.835 
548.344 
527.991 
448.753 
