ITEM: TIMESTEP
300000
ITEM: NUMBER OF CELLS
1000
ITEM: BOX BOUNDS ss rr pp
0 0.004
0 0.01
-0.5 0.5
ITEM: CELLS f_temp1[*] 
294.422 
319.108 
272.135 
289 
313.202 
260.684 
331.302 
274.826 
272.543 
269.499 
282.56 
278.602 
279.775 
302.704 
302.793 
296.054 
317.659 
309.727 
292.173 
306.829 
326.06 
301.726 
312.377 
301.136 
305.675 
239.883 
277.892 
310.516 
330.851 
326.845 
308.524 
304.07 
301.092 
268.483 
265.069 
323.35 
297.876 
336.607 
305.24 
315.905 
314.29 
288.13 
316.878 
310.783 
316.11 
314.638 
294.041 
266.875 
284.17 
285.52 
337.361 
329.097 
332.631 
275.213 
311.505 
318.66 
328.411 
335.297 
293.731 
326.615 
303.498 
319.076 
295.498 
315.958 
284.457 
306.79 
302.468 
290.487 
313.206 
281.537 
314.003 
319.21 
302.622 
270.906 
284.716 
268.698 
324.943 
328.235 
317.899 
310.563 
301.6 
306.555 
272.421 
305.618 
256.957 
290.111 
281.897 
304.536 
302.475 
310.161 
306.966 
305.971 
282.621 
287.096 
305.681 
327.125 
297.587 
259.762 
292.48 
311.454 
290.261 
305.33 
305.422 
269.223 
296.386 
287.347 
284.719 
329.309 
335.005 
320.675 
309.673 
279.184 
297.365 
326.723 
311.083 
334.954 
333.765 
326.861 
331.425 
305.102 
305.883 
314.597 
286.306 
327.949 
302.744 
317.6 
293.009 
326.035 
304.34 
297.143 
294.892 
315.452 
308.8 
357.703 
285.77 
330.876 
356.508 
276.887 
305.91 
309.979 
323.251 
293.955 
297.795 
308.894 
320.832 
313.82 
325.765 
320.376 
332.521 
301.297 
324.549 
314.155 
339.749 
310.509 
325.735 
351.516 
322.6 
342.764 
325.856 
316.496 
297.829 
360.863 
377.169 
317.717 
348.796 
318.385 
344.015 
308.901 
312.362 
325.797 
297.828 
286.089 
329.69 
285.714 
322.11 
298.292 
354.91 
317.213 
303.015 
283.553 
296.168 
328.594 
328.226 
326.497 
356.215 
348.357 
334.869 
351.987 
338.749 
281.316 
287.39 
301.481 
309.213 
334.22 
321.458 
308.494 
293.254 
331.58 
318.51 
331.776 
335.673 
309.401 
333.418 
296.935 
310.663 
330.383 
328.788 
312.896 
345.305 
337.127 
314.451 
349.621 
351.464 
317.809 
326.2 
322.431 
306.68 
352.283 
332.765 
326.337 
330.273 
332.139 
313.14 
315.453 
315.132 
323.89 
333.266 
290.207 
293.649 
277.251 
291.622 
336.059 
327.952 
351.941 
302.619 
288.601 
318.898 
329.082 
317.661 
316.342 
295.169 
301.393 
330.629 
308.439 
340.387 
329.428 
284.993 
304.281 
321.62 
298.601 
299.942 
349.415 
324.023 
313.872 
316.205 
319.215 
332.017 
315.867 
331.617 
299.132 
342.318 
290.323 
330.124 
343.631 
277.439 
296.708 
300.003 
327.128 
309.646 
325.192 
336.993 
371.966 
355.963 
328.312 
351.994 
310.626 
339.523 
343.751 
316.318 
297.061 
295.053 
337.472 
300.994 
298.097 
318.705 
340.441 
339.658 
309.254 
307.074 
344.289 
330.221 
307.607 
377.556 
317.391 
363.619 
323.51 
380.438 
384.536 
342.99 
329.378 
327.725 
345.657 
342.546 
332.998 
368.881 
385.559 
395.973 
345.713 
310.303 
345.862 
326.081 
332.542 
326.62 
335.399 
311.813 
308.125 
343.172 
308.003 
333.048 
365.285 
326.312 
311.106 
343.244 
350.694 
321.566 
343.846 
293.309 
349.251 
364.306 
351.545 
331.278 
396.113 
370.178 
361.766 
341.417 
326.18 
372.585 
305.554 
358.188 
402.359 
310.891 
359.326 
354.694 
387.082 
378.837 
345.525 
352.967 
340.343 
360.41 
314.809 
366.34 
367.379 
412.927 
407.822 
387.178 
324.244 
391.997 
335.426 
348.875 
388.977 
318.294 
348.435 
350.243 
362.63 
357.511 
368.675 
319.65 
397.191 
312.708 
350.326 
350.13 
314.888 
327.536 
378.593 
309.082 
381.159 
362.668 
319.535 
372.045 
368.755 
348.998 
359.913 
366.484 
355.354 
336.559 
321.414 
365.351 
352.678 
320.412 
343.09 
369.029 
377.858 
323.285 
378.143 
367.3 
334.356 
333.463 
320.111 
348.958 
340.577 
374.102 
322.169 
348.563 
343.462 
320.275 
349.73 
351.846 
343.589 
314.057 
319.602 
320.201 
304.326 
304.609 
308.981 
314.756 
331.645 
316.029 
319.174 
337.808 
373.62 
293.081 
321.103 
367.885 
333.175 
304.377 
331.024 
317.014 
313.611 
341.167 
306.497 
337.77 
347.74 
343.773 
373.283 
311.788 
372.208 
326.921 
344.49 
352.054 
331.33 
351.509 
347.323 
353.302 
324.107 
331.692 
333.587 
324.337 
336.746 
344.359 
359.242 
329.904 
359.282 
377.223 
346.745 
368.432 
363.517 
312.341 
309.624 
317.481 
339.007 
300.658 
331.41 
356.071 
314.552 
345.143 
382.225 
348.812 
347.542 
378.355 
376.424 
323.971 
344.652 
365.237 
320.433 
335.521 
348.35 
353.971 
380.435 
370.96 
314.106 
372.283 
349.736 
344.253 
349.989 
354.507 
367.141 
378.306 
377.567 
359.221 
399.236 
366.05 
360.179 
369.139 
360.933 
348.888 
365.836 
339.853 
338.78 
375.114 
384.897 
373.397 
360.728 
328.036 
328.911 
365.45 
425.791 
402.763 
412.067 
403.591 
412.259 
382.809 
320.585 
325.378 
411.466 
352.655 
370.533 
425.94 
313.463 
321.375 
340.315 
370.481 
364.025 
372.701 
373.195 
422.368 
356.492 
376.261 
345.634 
369.566 
358.686 
329.565 
342.436 
358.593 
402.971 
362.628 
352.338 
355.685 
379.561 
349.975 
352.475 
367.138 
338.715 
417.083 
324.939 
330.159 
365.415 
342.111 
316.876 
366.057 
373.22 
377.897 
324.355 
318.703 
401.181 
338.609 
345.131 
353.106 
363.7 
378.888 
340.123 
379.307 
334.049 
351.046 
394.834 
362.865 
341.52 
402.341 
382.623 
354.828 
387.523 
397.455 
397.651 
387.199 
356.842 
423.362 
357.538 
373.798 
366.682 
423.989 
374.115 
408.454 
405.314 
354.164 
406.26 
356.034 
374.556 
382.147 
405.409 
379.033 
436.839 
379.775 
359.24 
384.522 
364.789 
389.84 
360.589 
396.991 
344.381 
401.529 
361.631 
366.921 
345.276 
360.104 
427.488 
402.684 
399.051 
402.478 
448.554 
399.419 
418.137 
378.247 
402.904 
389.882 
336.353 
378.868 
368.783 
390.463 
372.665 
394.569 
397.807 
383.346 
378.229 
403.952 
381.502 
393.887 
421.99 
389.427 
360.367 
371.359 
395.118 
366.012 
358.136 
462.886 
408.26 
429.795 
377.688 
374.11 
419.432 
413.93 
384.104 
375.089 
403.416 
379.73 
346.881 
408.545 
449.591 
371.819 
383.086 
430.065 
412.804 
436.446 
427.223 
395.419 
416.186 
427.889 
399.199 
342.853 
363.949 
364.355 
376.22 
408.268 
297.94 
370.288 
389.168 
374.357 
394.111 
397.761 
376.486 
415.939 
364.151 
392.551 
409.158 
340.692 
380.624 
368.435 
394.122 
409.274 
397.87 
437.5 
339.825 
385.452 
421.291 
433.598 
413.873 
415.859 
413.579 
359.646 
377.978 
462.357 
469.015 
412.596 
434.373 
436.518 
385.613 
420.866 
418.158 
384.814 
391.41 
429.046 
397.854 
437.268 
381.034 
397.258 
305.104 
358.491 
398.108 
351.262 
383.19 
430.3 
359.638 
393.446 
406.524 
378.658 
401.983 
395.211 
410.604 
371.109 
411.526 
361.092 
415.208 
367.81 
385.148 
452.867 
359.06 
390.234 
420.912 
369.334 
427.588 
398.855 
410.936 
381.856 
434.411 
454.52 
388.364 
435.665 
415.961 
397.781 
392.079 
382.679 
377.431 
418.803 
408.031 
436.095 
444.859 
410.696 
429.112 
444.436 
400.221 
494.001 
409.037 
404.201 
430.303 
431.379 
400.121 
417.194 
399.131 
455.346 
438.157 
436.862 
456.093 
493.494 
478.907 
410.117 
427.936 
411.295 
404.992 
502.327 
388.433 
463.476 
369.097 
397.755 
449.997 
426.499 
434.192 
458.953 
441.1 
423.257 
444.786 
424.766 
419.535 
414.805 
469.939 
422.84 
438.984 
425.248 
422.719 
475.401 
486.65 
387.101 
448.412 
435.266 
407.242 
473.085 
375.677 
449.845 
484.216 
471.626 
480.184 
388.047 
398.851 
452.445 
428.267 
446.184 
399.204 
480.629 
471.005 
415.717 
400.36 
444.145 
425.86 
423.187 
396.755 
453.97 
428.363 
390.619 
452.721 
429.942 
408.842 
461.669 
460.845 
459.046 
442.693 
452.795 
510.559 
423.355 
444.54 
425.593 
466.105 
471.851 
438.432 
424.564 
440.881 
454.689 
492.229 
464.938 
469.419 
459.838 
462.092 
447.541 
475.245 
401.683 
405.112 
447.117 
414.263 
504.339 
465.767 
410.359 
471.287 
422.432 
463.613 
462.483 
424.173 
441.773 
492.486 
471.987 
410.791 
446.943 
448.625 
403.614 
414.024 
466.924 
417.238 
411.214 
490.79 
512.261 
492.236 
475.425 
450.134 
470.396 
446.61 
420.054 
491.883 
447.851 
462.814 
491.42 
480.101 
466.19 
459.646 
466.731 
446.621 
463.573 
416.465 
492.019 
517.025 
522.843 
495.354 
460.264 
499.541 
499.668 
508.442 
468.813 
476.177 
434.69 
462.897 
437.259 
502.544 
478.142 
508.061 
427.557 
475.153 
397.762 
395.007 
463.903 
440.803 
408.23 
500.845 
456.353 
444.114 
435.624 
480.146 
550.965 
486.254 
460.516 
497.002 
477.928 
480.658 
467.446 
470.478 
464.582 
503.807 
502.215 
506.264 
517.269 
506.866 
500.416 
483.285 
490.975 
440.545 
473.452 
520.094 
494.028 
446.242 
458.789 
510.713 
451.978 
575.946 
545.845 
435.976 
446.011 
442.351 
484.341 
482.921 
470.231 
472.483 
429.902 
424.445 
515.012 
437.717 
468.078 
511.829 
408.253 
424.398 
464.489 
441.015 
493.904 
449.107 
507.255 
508.45 
462.359 
510.912 
477.259 
506.335 
469.875 
524.384 
480.63 
468.041 
449.584 
450.025 
504.915 
437.057 
458.144 
416.403 
463.989 
481.819 
525.628 
475.375 
448.552 
495.276 
500.298 
471.845 
533.986 
452.713 
484.886 
509.947 
522.966 
489.521 
438.096 
439.033 
530.276 
480.038 
512.047 
514.227 
530.091 
451.964 
450.425 
522.772 
415.015 
460.436 
465.724 
460.774 
