ITEM: TIMESTEP
7200000
ITEM: NUMBER OF CELLS
1000
ITEM: BOX BOUNDS ss rr pp
0 0.004
0 0.01
-0.5 0.5
ITEM: CELLS f_temp1[*] 
330.312 
315.626 
272.967 
296.991 
311.252 
306.657 
352.68 
318.503 
289.935 
315.903 
329.145 
326.009 
306.873 
280.645 
290.143 
310.69 
301.212 
302.415 
309.144 
290.718 
300.779 
314.058 
310.798 
323.093 
327.546 
322.541 
318.76 
325.21 
312.65 
311.917 
307.57 
322.459 
312.459 
343.524 
275.156 
297.527 
364.722 
368.693 
311.352 
303.465 
313.803 
275.074 
304.191 
349.866 
330.669 
299.597 
342.841 
306.991 
321.346 
313.642 
308.269 
316.396 
322.015 
345.25 
318.692 
298.868 
270.93 
310.394 
321.717 
302.844 
310.705 
314.889 
307.454 
298.173 
307.286 
313.514 
331.643 
293.622 
331.23 
327.701 
327.368 
283.839 
293.017 
304.331 
320.161 
328.087 
314.39 
276.199 
317.282 
314.569 
299.904 
362.793 
304.924 
294.765 
314.103 
320.207 
344.969 
332.702 
337.383 
332.895 
330.695 
314.883 
328.793 
334.104 
308.967 
347.217 
303.87 
320.844 
289.017 
328.958 
331.827 
325.533 
330.96 
361.805 
309.85 
320.446 
345.795 
326.353 
368.343 
296.92 
329.45 
309.525 
339.149 
339.682 
369.788 
356.525 
335.501 
332.863 
331.118 
321.665 
371.923 
343.122 
318.048 
368.069 
360.791 
310.894 
325.495 
349.301 
338.702 
333.621 
292.088 
323.497 
333.511 
371.605 
318.334 
371.119 
363.086 
293.286 
309.438 
355.38 
329.751 
327.065 
338.685 
393.304 
359.986 
314.468 
333.098 
350.735 
325.872 
367.75 
314.755 
355.097 
323.678 
364.177 
365.627 
308.539 
350.155 
331.471 
347.344 
362.999 
321.71 
318.482 
330.428 
351.921 
374.209 
341.388 
327.706 
340.355 
361.787 
367.342 
347.025 
327.818 
327.261 
350.892 
338.668 
338.051 
343.62 
337.776 
321.088 
392.355 
336.754 
318.637 
335.32 
317.086 
357.223 
310.988 
348 
315.948 
304.784 
330.237 
349.389 
340.909 
358.415 
375.467 
346.718 
345.024 
383.65 
324.36 
319.783 
358.671 
395.164 
336.072 
345.549 
377.685 
333.031 
348.579 
371.43 
349.797 
348.594 
370.728 
382.246 
394.917 
335.055 
358.394 
373.103 
385.232 
321.76 
389.803 
337.143 
345.057 
354.028 
341.056 
353.247 
317.845 
319.349 
353.282 
345.724 
367.147 
380.644 
374.138 
413.868 
389.307 
364.494 
359.546 
347.529 
352.522 
330.409 
368.354 
356.409 
346.33 
382.869 
374.223 
389.568 
370.812 
358.021 
339.278 
386.578 
407.86 
350.321 
389.34 
346.486 
325.927 
367.605 
417.683 
402.215 
411.976 
374.882 
377.045 
375.155 
394.407 
377.878 
388.471 
357.87 
375.922 
352.532 
388.245 
341.632 
365.446 
419.934 
400.915 
385.044 
366.093 
371.526 
368.666 
359.589 
396.656 
349.87 
372.54 
378.8 
377.228 
373.284 
371.891 
446.433 
397.06 
403.219 
337.269 
420.131 
415.677 
423.192 
362.333 
415.1 
338.136 
370.783 
411.015 
355.305 
406.237 
383.093 
475.513 
424.679 
397.876 
407.841 
382.271 
403.602 
410.161 
420.202 
388.43 
363.275 
348.452 
370.231 
343.691 
397.312 
382.916 
388.08 
369.065 
379.83 
411.519 
412.709 
462.554 
409.739 
447.21 
343.082 
429.567 
383.341 
415.076 
404.249 
409.116 
425.709 
428.4 
414.974 
382.895 
366.208 
357.09 
399.062 
389.276 
358.186 
367.21 
373.717 
421.542 
373.324 
363.839 
364.163 
406.826 
394.269 
375.604 
450.529 
372.812 
417.7 
389.177 
365.245 
420.817 
368.976 
402.725 
382.206 
450.346 
390.342 
379.374 
343.144 
345.94 
403.631 
346.482 
357.845 
379.97 
415.431 
364.853 
387.116 
361.502 
340.756 
379.8 
399.158 
403.871 
390.389 
332.166 
365.954 
390.163 
349.011 
379.432 
420.298 
392.21 
372.613 
356.801 
368.513 
364.282 
370.26 
342.825 
367.343 
341.705 
360.801 
372.09 
385.237 
387.58 
332.675 
348.936 
386.89 
376.923 
397.604 
371.988 
429.694 
333.683 
327.726 
368.99 
331.514 
326.416 
316.253 
407.465 
369.179 
378.465 
393.305 
369.084 
371.974 
365.908 
391.604 
378.267 
397.23 
405.588 
413.575 
429.529 
374.904 
400.447 
418.373 
448.571 
410.844 
449.131 
371.755 
384.675 
372.052 
374.273 
361.671 
375.665 
396.896 
421.338 
404.587 
452.935 
406.396 
399.78 
402.472 
376.291 
426.423 
398.631 
372.03 
449.546 
434.622 
391.852 
386.973 
340.06 
411.903 
403.726 
403.259 
422.412 
429.554 
356.145 
396.518 
347.51 
387.444 
363.16 
379.011 
390.427 
351.477 
365.005 
366.99 
422.237 
438.662 
348.681 
357.358 
376.107 
408.544 
385.805 
406.143 
425.992 
367.901 
435.628 
415.64 
406.157 
410.131 
402.352 
427.704 
430.246 
412.604 
400.144 
370.443 
418.327 
328.274 
415.213 
438.857 
410.895 
407.746 
393.183 
437.354 
390.772 
463.775 
377.087 
420.761 
464.498 
430.802 
391.183 
384.7 
391.522 
411.458 
393.985 
377.788 
373.213 
412.642 
411.227 
370.514 
404.077 
402.779 
440.365 
426.018 
420.12 
384.321 
436.457 
422.556 
422.639 
412.471 
395.774 
447.081 
443.067 
413.458 
447.01 
459.402 
460.843 
387.182 
365.47 
387.855 
427.306 
373.651 
439.303 
455.751 
420.887 
378.243 
420.184 
423.558 
434.694 
383.75 
454.622 
391.913 
403.149 
422.012 
373.161 
402.458 
447.324 
350.219 
410.32 
423.975 
424.015 
366.899 
427.744 
405.356 
433.04 
430.928 
413.706 
426.796 
489.429 
406.034 
387.021 
402.099 
423.728 
398.061 
423.153 
400.063 
417.674 
388.276 
404.014 
448.776 
447.977 
404.157 
437.195 
400.994 
368.462 
393.919 
437.654 
439.435 
473.719 
403.957 
449.118 
442.169 
383.069 
379.452 
507.976 
400.117 
441.379 
502.271 
425.714 
407.263 
394.416 
390.344 
439.636 
396.737 
472.665 
370.315 
475.102 
463.335 
414.825 
447.283 
403.965 
404.549 
438.983 
398.476 
362.078 
433.61 
422.454 
436.94 
406.297 
439.4 
476.888 
508.222 
396.072 
432.073 
441.092 
442.651 
419.368 
425.538 
461.558 
400.686 
434.242 
397.271 
408.28 
476.035 
424.436 
414.934 
414.516 
404.397 
441.105 
446.454 
462.256 
401.43 
436.344 
431.891 
497.7 
423.436 
499.115 
384.165 
427.232 
475.072 
453.286 
434.258 
369.265 
404.476 
438.345 
461.032 
496.526 
439.391 
484.01 
448.123 
498.013 
466.946 
440.363 
475.627 
424.813 
394.619 
391.258 
391.638 
412.157 
405.513 
455.264 
395.098 
486.92 
404.389 
365.279 
405.109 
469.045 
414.511 
466.287 
497.749 
449.055 
490.325 
500.296 
481.396 
433.332 
465.336 
402.245 
476.498 
434.925 
527.872 
464.198 
410.137 
470.322 
413.477 
449.395 
454.111 
417.98 
412.82 
436.234 
430.342 
429.349 
442.312 
455.046 
433.913 
425.336 
419.803 
430.826 
475.434 
452.895 
464.745 
458.398 
485.212 
449.59 
411.566 
520.858 
455.432 
410.135 
442.826 
462.593 
476.385 
445.4 
425.967 
449.284 
421.145 
431.614 
438.05 
425.767 
444.793 
416.44 
447.709 
424.948 
485.385 
407.595 
406.122 
393.006 
407.095 
444.535 
471.763 
415.299 
477.329 
411.477 
438.393 
445.894 
436.233 
436.858 
375.256 
402.676 
448.242 
413.301 
504.412 
426.662 
457.514 
463.756 
378.109 
413.911 
466.086 
398.177 
428.801 
456.446 
393.411 
408.638 
395.074 
430.753 
436.079 
449.403 
403.129 
371.805 
439.802 
423.347 
487.458 
423.328 
428.254 
426.204 
427.195 
483.97 
482.204 
464.997 
420.632 
437.083 
485.204 
470.732 
504.089 
477.04 
467.737 
460.856 
418.054 
527.318 
471.41 
515.879 
438.706 
415.762 
432.093 
501.274 
460.685 
436.857 
481.271 
450.068 
456.883 
479.6 
467.364 
440.897 
428.958 
404.711 
467.572 
454.809 
424.519 
454.098 
458.126 
383.441 
392.98 
475.798 
486.795 
454.401 
457.375 
491.391 
454.305 
430.693 
455.209 
478.683 
436.204 
495.166 
462.624 
418.272 
507.145 
471.498 
468.142 
397.15 
479.803 
431.931 
444.336 
480.72 
463.411 
458.757 
447.708 
470.138 
497.939 
470.765 
462.942 
464.676 
444.772 
471.843 
533.627 
509.272 
502.431 
461.821 
460.689 
469.734 
456.546 
468.961 
456.843 
502.16 
480.98 
461.204 
461.609 
400.977 
432.384 
504.154 
476.245 
458.875 
425.129 
480.149 
406.661 
474.37 
445.397 
464.489 
458.461 
462.439 
484.449 
508.725 
508.496 
470.555 
501.641 
483.781 
499.062 
450.199 
454.351 
497.662 
425.862 
468.533 
404.679 
461.873 
384.723 
472.909 
465.736 
452.492 
439.808 
415.042 
495.221 
506.669 
473.713 
485.556 
480.107 
478.069 
466.754 
461.656 
466.449 
460.888 
522.227 
449.472 
474.314 
429.977 
466.72 
467.945 
480.833 
496.051 
453.221 
508.51 
474.393 
414.115 
447.903 
446.295 
481.352 
492.108 
492.655 
459.32 
470.673 
437.93 
464.727 
493.469 
467.828 
437.775 
444.957 
405.4 
444.147 
483.387 
496.031 
427.436 
453.974 
519.437 
533.676 
566.854 
501.625 
514.53 
512.436 
478.902 
403.323 
419.605 
466.54 
444.587 
499.259 
510.753 
477.151 
461.95 
500.168 
437.568 
516.564 
535.482 
549.202 
438.919 
528.225 
474.911 
436.926 
514.008 
481.484 
506.386 
463.167 
503.48 
490.433 
519.693 
500.173 
477.442 
463.222 
512.108 
566.974 
519.026 
492.755 
551.525 
427.213 
425.836 
489.969 
478.239 
510.691 
467.849 
500.761 
501.2 
453.929 
526.42 
488.684 
502.174 
448.158 
486.224 
532.545 
493.022 
474.462 
528.615 
448.499 
457.491 
421.835 
511.788 
545.757 
520.905 
518.526 
506.525 
460.338 
542.639 
432.773 
509.198 
445.431 
438.255 
478.202 
467.14 
511.903 
425.099 
490.433 
490.331 
547.981 
545.859 
529.364 
528.411 
541.841 
421.631 
497.624 
461.032 
539.449 
522.211 
501.843 
498.315 
