ITEM: TIMESTEP
233600000
ITEM: NUMBER OF CELLS
100
ITEM: BOX BOUNDS ss pp pp
0 0.001
0 1e-05
-0.5 0.5
ITEM: CELLS c_particles[1] 
25 
23 
25 
25 
15 
16 
24 
17 
22 
23 
23 
14 
17 
36 
22 
21 
27 
23 
18 
20 
19 
15 
21 
20 
23 
20 
28 
29 
23 
14 
19 
18 
19 
20 
25 
28 
17 
15 
26 
21 
19 
27 
10 
28 
28 
21 
23 
15 
18 
23 
18 
16 
16 
21 
22 
19 
21 
17 
26 
20 
35 
19 
24 
17 
20 
20 
24 
22 
13 
21 
18 
17 
19 
20 
15 
17 
24 
15 
19 
19 
15 
19 
10 
16 
15 
19 
17 
19 
20 
23 
17 
17 
22 
18 
17 
17 
20 
16 
11 
10 
