ITEM: TIMESTEP
36400000
ITEM: NUMBER OF CELLS
100
ITEM: BOX BOUNDS ss pp pp
0 0.001
0 1e-05
-0.5 0.5
ITEM: CELLS c_particles[1] 
21 
20 
19 
19 
30 
22 
16 
23 
23 
21 
35 
17 
23 
19 
17 
21 
26 
18 
24 
15 
25 
18 
23 
24 
15 
24 
22 
20 
13 
15 
20 
22 
17 
23 
19 
14 
21 
20 
16 
21 
27 
28 
20 
18 
21 
20 
22 
22 
24 
24 
18 
14 
15 
15 
23 
20 
25 
18 
25 
23 
14 
23 
18 
23 
24 
25 
18 
22 
18 
16 
9 
22 
14 
19 
19 
24 
19 
21 
15 
20 
17 
18 
24 
19 
22 
14 
22 
19 
17 
20 
17 
19 
17 
20 
15 
20 
19 
17 
20 
18 
