ITEM: TIMESTEP
174800000
ITEM: NUMBER OF CELLS
100
ITEM: BOX BOUNDS ss pp pp
0 0.001
0 1e-05
-0.5 0.5
ITEM: CELLS c_particles[1] 
22 
11 
22 
13 
32 
24 
22 
25 
32 
23 
22 
22 
23 
24 
23 
23 
24 
21 
28 
26 
21 
26 
23 
28 
15 
16 
18 
22 
21 
20 
18 
19 
30 
22 
31 
13 
20 
11 
13 
18 
19 
21 
17 
21 
24 
23 
18 
20 
21 
24 
28 
33 
14 
18 
23 
15 
18 
23 
13 
19 
18 
21 
20 
19 
22 
24 
10 
14 
20 
14 
18 
21 
16 
12 
21 
16 
14 
17 
22 
20 
15 
15 
14 
18 
16 
26 
23 
28 
13 
15 
21 
11 
21 
18 
16 
20 
23 
14 
12 
23 
