ITEM: TIMESTEP
108900000
ITEM: NUMBER OF CELLS
100
ITEM: BOX BOUNDS ss pp pp
0 0.001
0 1e-05
-0.5 0.5
ITEM: CELLS c_particles[1] 
29 
20 
30 
26 
16 
17 
20 
19 
25 
28 
17 
24 
23 
24 
15 
16 
18 
30 
28 
24 
16 
20 
18 
24 
24 
23 
25 
14 
22 
22 
26 
25 
17 
19 
15 
25 
22 
20 
23 
25 
21 
19 
17 
22 
25 
16 
20 
28 
28 
23 
12 
18 
18 
22 
15 
24 
29 
29 
15 
11 
19 
16 
14 
21 
20 
15 
14 
19 
13 
20 
23 
18 
15 
22 
27 
21 
17 
14 
19 
21 
22 
23 
13 
17 
23 
20 
12 
13 
21 
21 
17 
20 
20 
19 
15 
19 
9 
19 
10 
13 
