ITEM: TIMESTEP
173500000
ITEM: NUMBER OF CELLS
100
ITEM: BOX BOUNDS ss pp pp
0 0.001
0 1e-05
-0.5 0.5
ITEM: CELLS c_particles[1] 
22 
31 
18 
23 
27 
25 
32 
16 
23 
25 
21 
26 
20 
20 
25 
27 
16 
21 
21 
13 
17 
20 
26 
17 
29 
22 
26 
29 
21 
29 
16 
17 
19 
14 
19 
18 
20 
19 
17 
14 
12 
17 
28 
18 
21 
18 
26 
17 
24 
19 
28 
16 
26 
14 
26 
26 
16 
25 
17 
24 
21 
20 
26 
25 
20 
19 
14 
14 
23 
17 
28 
20 
13 
18 
16 
16 
14 
23 
4 
21 
16 
20 
25 
16 
15 
27 
14 
18 
21 
16 
17 
15 
17 
16 
21 
10 
15 
15 
21 
14 
