ITEM: TIMESTEP
9000000
ITEM: NUMBER OF CELLS
100
ITEM: BOX BOUNDS ss pp pp
0 0.001
0 1e-05
-0.5 0.5
ITEM: CELLS c_particles[1] 
27 
20 
16 
12 
19 
25 
18 
22 
23 
13 
22 
23 
23 
22 
19 
23 
25 
30 
24 
22 
22 
19 
29 
16 
15 
25 
18 
14 
23 
19 
16 
22 
31 
21 
18 
23 
12 
19 
16 
23 
15 
21 
21 
25 
22 
20 
17 
13 
20 
19 
12 
26 
27 
31 
17 
18 
9 
30 
29 
13 
22 
19 
25 
14 
31 
27 
16 
13 
20 
22 
14 
22 
18 
21 
26 
23 
14 
17 
16 
15 
18 
25 
17 
18 
29 
21 
14 
19 
19 
22 
11 
21 
22 
13 
21 
18 
17 
16 
14 
16 
