ITEM: TIMESTEP
27200000
ITEM: NUMBER OF CELLS
100
ITEM: BOX BOUNDS ss pp pp
0 0.001
0 1e-05
-0.5 0.5
ITEM: CELLS c_particles[1] 
27 
20 
15 
21 
19 
18 
22 
18 
18 
25 
19 
19 
27 
23 
17 
22 
23 
31 
29 
19 
23 
22 
17 
18 
22 
22 
15 
30 
20 
22 
23 
25 
17 
16 
15 
17 
18 
23 
18 
23 
25 
22 
15 
19 
25 
14 
26 
21 
15 
23 
13 
13 
19 
24 
19 
18 
22 
19 
24 
21 
16 
20 
18 
22 
10 
20 
18 
17 
25 
25 
20 
18 
21 
20 
21 
26 
22 
19 
19 
21 
17 
20 
27 
14 
14 
23 
21 
19 
18 
18 
19 
19 
21 
18 
13 
12 
17 
14 
18 
25 
