ITEM: TIMESTEP
170000000
ITEM: NUMBER OF CELLS
100
ITEM: BOX BOUNDS ss pp pp
0 0.001
0 1e-05
-0.5 0.5
ITEM: CELLS c_particles[1] 
25 
25 
25 
20 
19 
17 
24 
23 
25 
25 
20 
22 
22 
28 
21 
26 
11 
19 
24 
22 
19 
25 
21 
11 
29 
22 
19 
23 
30 
20 
23 
15 
15 
27 
24 
24 
20 
15 
24 
26 
12 
23 
23 
18 
18 
18 
23 
21 
14 
14 
25 
13 
24 
20 
24 
23 
25 
26 
17 
18 
25 
24 
20 
21 
18 
20 
23 
10 
22 
11 
13 
15 
17 
21 
20 
13 
16 
19 
15 
18 
21 
20 
18 
19 
19 
19 
21 
12 
22 
13 
22 
19 
22 
15 
16 
16 
17 
18 
23 
13 
