ITEM: TIMESTEP
135700000
ITEM: NUMBER OF CELLS
100
ITEM: BOX BOUNDS ss pp pp
0 0.001
0 1e-05
-0.5 0.5
ITEM: CELLS c_particles[1] 
24 
21 
27 
25 
35 
21 
23 
28 
20 
20 
26 
19 
27 
23 
27 
18 
17 
17 
25 
20 
17 
34 
23 
15 
12 
19 
18 
24 
25 
26 
21 
23 
19 
18 
19 
21 
19 
18 
24 
16 
24 
16 
16 
21 
20 
14 
22 
20 
26 
23 
17 
16 
17 
22 
10 
18 
11 
29 
19 
15 
22 
19 
23 
19 
13 
15 
23 
18 
17 
20 
22 
13 
19 
18 
18 
18 
23 
21 
19 
17 
14 
18 
27 
22 
17 
16 
23 
12 
20 
18 
22 
15 
17 
23 
17 
17 
18 
18 
18 
21 
