ITEM: TIMESTEP
207200000
ITEM: NUMBER OF CELLS
100
ITEM: BOX BOUNDS ss pp pp
0 0.001
0 1e-05
-0.5 0.5
ITEM: CELLS c_particles[1] 
29 
31 
22 
23 
20 
24 
32 
24 
21 
26 
15 
16 
27 
29 
20 
17 
22 
24 
19 
23 
24 
22 
27 
15 
19 
23 
19 
26 
23 
23 
23 
29 
20 
17 
13 
19 
16 
26 
18 
19 
13 
18 
22 
19 
29 
24 
22 
20 
20 
31 
20 
12 
13 
16 
26 
21 
12 
22 
20 
23 
18 
13 
19 
21 
5 
21 
20 
14 
21 
10 
16 
18 
13 
17 
19 
24 
14 
17 
19 
19 
20 
17 
18 
20 
18 
22 
17 
23 
13 
30 
16 
17 
17 
21 
19 
11 
18 
21 
15 
21 
