ITEM: TIMESTEP
144700000
ITEM: NUMBER OF CELLS
100
ITEM: BOX BOUNDS ss pp pp
0 0.001
0 1e-05
-0.5 0.5
ITEM: CELLS c_particles[1] 
26 
24 
25 
30 
25 
17 
14 
19 
21 
22 
19 
16 
21 
30 
21 
16 
15 
27 
25 
26 
13 
20 
22 
29 
24 
15 
25 
20 
21 
21 
18 
29 
14 
26 
24 
16 
19 
19 
15 
24 
32 
23 
21 
18 
19 
22 
20 
30 
20 
13 
15 
19 
16 
14 
24 
26 
23 
22 
17 
29 
20 
21 
22 
22 
21 
26 
18 
17 
20 
16 
21 
18 
27 
18 
19 
17 
17 
15 
19 
13 
16 
15 
19 
16 
18 
17 
16 
19 
11 
15 
26 
15 
18 
20 
15 
17 
18 
21 
10 
15 
