ITEM: TIMESTEP
66400000
ITEM: NUMBER OF CELLS
100
ITEM: BOX BOUNDS ss pp pp
0 0.001
0 1e-05
-0.5 0.5
ITEM: CELLS c_particles[1] 
31 
18 
29 
23 
21 
22 
23 
18 
22 
24 
23 
16 
17 
13 
21 
29 
24 
27 
18 
23 
25 
24 
21 
11 
22 
18 
18 
29 
23 
18 
19 
29 
20 
24 
18 
21 
20 
18 
23 
21 
20 
19 
14 
19 
18 
18 
24 
22 
19 
14 
29 
14 
16 
22 
20 
32 
23 
19 
24 
19 
26 
13 
14 
24 
29 
18 
19 
29 
15 
15 
16 
21 
14 
15 
18 
20 
22 
21 
16 
14 
17 
17 
22 
17 
25 
16 
16 
16 
14 
15 
26 
20 
13 
15 
20 
16 
16 
16 
20 
15 
