ITEM: TIMESTEP
184300000
ITEM: NUMBER OF CELLS
100
ITEM: BOX BOUNDS ss pp pp
0 0.001
0 1e-05
-0.5 0.5
ITEM: CELLS f_temp1[*] 
233.49 
233.584 
236.613 
238.281 
238.803 
238.964 
241.676 
238.911 
243.143 
244.78 
241.822 
244.783 
242.721 
248.003 
247.101 
247.243 
248.004 
249.69 
250.974 
249.744 
254.389 
254.937 
252.908 
256.299 
255.749 
256.331 
258.118 
259.076 
256.418 
258.566 
257.298 
262.122 
261.63 
259.263 
258.961 
263.22 
262.444 
263.87 
264.85 
267.316 
265.262 
269.827 
264.688 
266.685 
268.061 
272.373 
269.604 
272.721 
270.89 
274.669 
272.693 
274.569 
273.902 
276.767 
275.279 
277.087 
278.856 
279.179 
278.62 
277.643 
282.22 
282.052 
284.254 
283.162 
284.539 
282.117 
286.581 
288.245 
284.866 
286.138 
290.779 
288.545 
286.877 
289.972 
287.765 
289.798 
292.945 
292.813 
290.303 
291.861 
294.09 
294.14 
295.804 
295.18 
297.441 
299.728 
297.941 
301.086 
301.448 
300.112 
302.231 
301.749 
303.16 
306.31 
307.117 
309.866 
307.275 
309.601 
306.669 
310.507 
