ITEM: TIMESTEP
95700000
ITEM: NUMBER OF CELLS
100
ITEM: BOX BOUNDS ss pp pp
0 0.001
0 1e-05
-0.5 0.5
ITEM: CELLS f_temp1[*] 
234.123 
233.773 
234.184 
237.909 
238.088 
238.31 
240.751 
242.43 
241.587 
241.94 
243.524 
242.752 
244.815 
247.248 
245.752 
245.36 
247.641 
250.987 
248.39 
252.34 
252.239 
249.652 
253.145 
252.932 
256.565 
254.551 
254.265 
256.633 
257.036 
258.374 
257.449 
262.856 
259.105 
259.544 
260.897 
262.63 
263.654 
262.294 
264.862 
265.876 
267.894 
268.357 
270.014 
266.198 
267.584 
270.947 
270.533 
270.071 
270.536 
272.581 
272.375 
275.004 
271.341 
275.862 
277.294 
274.325 
277.84 
278.055 
277.624 
277.013 
278.351 
283.024 
280.964 
282.327 
284.75 
286.227 
283.182 
285.094 
284.438 
283.733 
286.326 
290.389 
286.572 
287.184 
292.033 
294.223 
292.899 
294.081 
293.999 
293.326 
294.106 
297.944 
292.96 
298.787 
301.743 
296.873 
298.998 
303.564 
301.813 
301.331 
305.717 
299.191 
305.642 
307.323 
307.37 
307.958 
307.641 
308.951 
314.365 
315.439 
