ITEM: TIMESTEP
222200000
ITEM: NUMBER OF CELLS
100
ITEM: BOX BOUNDS ss pp pp
0 0.001
0 1e-05
-0.5 0.5
ITEM: CELLS f_temp1[*] 
231.45 
235.4 
235.953 
237.523 
240.036 
239.464 
240.014 
241.713 
240.423 
244.808 
244.308 
245.638 
243.563 
244.423 
246.525 
246.639 
246.654 
249.378 
251.2 
247.761 
254.249 
249.051 
252.342 
250.07 
255.407 
255.639 
254.629 
255.887 
257.033 
257.931 
260.674 
258.831 
261.34 
263.521 
261.652 
261.013 
265.704 
263.462 
264.94 
264.698 
265.003 
267.024 
266.27 
270.853 
270.293 
270.778 
273.816 
273.374 
272.354 
273.941 
273.663 
273.323 
273.899 
276.651 
273.829 
277.935 
278.947 
279.003 
278.882 
281.467 
281.217 
279.613 
284.737 
280.684 
284.311 
284.965 
283.896 
284.631 
284.727 
288.521 
284.252 
287.847 
287.497 
289.073 
292.616 
290.137 
288.403 
293.796 
293.315 
295.918 
295.702 
295.678 
297.55 
292.433 
297.306 
301.849 
295.977 
301.663 
299.454 
302.412 
302.043 
304.807 
304.111 
305.747 
305.834 
303.935 
304.031 
307.377 
309.902 
308.395 
