ITEM: TIMESTEP
111200000
ITEM: NUMBER OF CELLS
100
ITEM: BOX BOUNDS ss pp pp
0 0.001
0 1e-05
-0.5 0.5
ITEM: CELLS f_temp1[*] 
230.467 
235.893 
235.401 
237.03 
238.13 
237.588 
239.511 
239.009 
242.803 
241.302 
241.335 
246.88 
243.109 
246.825 
246.31 
248.149 
247.095 
248.731 
250.798 
250.349 
254.301 
250.86 
252.693 
254.146 
254.702 
258.402 
257.293 
259.404 
256.901 
259.624 
259.389 
255.986 
262.294 
260.69 
261.385 
262.091 
261.894 
264.756 
266.457 
265.655 
263.168 
267.656 
264.749 
265.881 
270.706 
271.201 
269.607 
271.325 
271.642 
273.131 
274.211 
272.682 
274.34 
277.086 
277.011 
274.159 
277.486 
280.613 
280.277 
276.877 
281.87 
284.548 
284.945 
281.226 
282.735 
282.734 
286.573 
284.804 
284.341 
289.723 
290.659 
290.497 
288.066 
290.521 
292.103 
291.06 
294.584 
294.142 
296.733 
297.919 
294.382 
296.953 
298.874 
297.65 
295.311 
296.991 
301.177 
300.141 
295.574 
300.576 
306.052 
306.855 
304.089 
305.569 
305.995 
305.146 
309.899 
308.399 
308.554 
310.923 
