ITEM: TIMESTEP
145200000
ITEM: NUMBER OF CELLS
100
ITEM: BOX BOUNDS ss pp pp
0 0.001
0 1e-05
-0.5 0.5
ITEM: CELLS f_temp1[*] 
234.357 
234.499 
234.476 
234.046 
237.115 
240.979 
240.029 
240.934 
239.988 
240.749 
241.391 
244.26 
244.295 
245.089 
248.165 
244.753 
249.063 
246.721 
249.216 
249.658 
251.378 
252.142 
251.097 
253.414 
254.386 
253.634 
256.009 
256.998 
255.467 
256.604 
260.135 
260.333 
258.897 
260.619 
262.079 
262.376 
264.323 
262.973 
265.005 
265.625 
266.946 
270.164 
265.096 
267.032 
270.194 
270.269 
269.385 
269.337 
271.656 
274.883 
271.881 
275.327 
276.213 
275.85 
275.67 
279.036 
280.456 
279.859 
279.899 
281.417 
284.466 
282.343 
281.233 
284.368 
287.413 
284.864 
284.295 
283.168 
283.294 
288.811 
284.405 
287.429 
289.087 
286.786 
287.573 
290.587 
290.036 
295.638 
291.739 
292.247 
295.977 
296.509 
295.317 
294.798 
297.704 
302.441 
297.196 
297.037 
300.325 
300.825 
300.657 
304.957 
305.063 
307.476 
305.117 
305.93 
309.427 
308.52 
311.914 
311.86 
