ITEM: TIMESTEP
46100000
ITEM: NUMBER OF CELLS
100
ITEM: BOX BOUNDS ss pp pp
0 0.001
0 1e-05
-0.5 0.5
ITEM: CELLS f_temp1[*] 
234.514 
235.405 
234.992 
238.616 
240.031 
240.222 
240.683 
241.681 
244.125 
243.117 
244.153 
245.335 
247.894 
250.266 
245.895 
246.831 
247.133 
249.339 
249.33 
250.139 
250.461 
251.426 
254.133 
256.158 
255.785 
256.264 
257.105 
260.583 
258.044 
256.875 
256.563 
259.478 
260.478 
261.206 
258.893 
263.196 
264.252 
264.1 
268.004 
267.485 
265.766 
271.087 
268.902 
267.69 
271.499 
272.814 
272.177 
273.269 
273.458 
273.307 
276.38 
275.031 
273.159 
276.76 
280.286 
279.619 
281.235 
281.477 
278.36 
280.867 
281.192 
282.515 
281.206 
283.131 
286.233 
286.1 
285.733 
285.825 
283.732 
288.049 
287.722 
290.966 
288.956 
291.922 
293.578 
291.236 
292.253 
295.382 
294.353 
297.325 
294.262 
296.981 
296.14 
295.376 
297.97 
301.421 
300.843 
303.623 
301.15 
302.619 
301.781 
300.856 
303.474 
305.291 
306.862 
305.842 
306.417 
309.886 
307.442 
316.259 
