ITEM: TIMESTEP
121600000
ITEM: NUMBER OF CELLS
100
ITEM: BOX BOUNDS ss pp pp
0 0.001
0 1e-05
-0.5 0.5
ITEM: CELLS f_temp1[*] 
232.771 
234.564 
235.847 
234.766 
237.646 
236.428 
235.059 
241.81 
242.188 
237.55 
242.3 
242.133 
243.974 
247.226 
247.501 
249.164 
248.358 
249.623 
249.92 
250.206 
250.242 
252.974 
251.011 
253.789 
254.909 
252.658 
255.165 
256.179 
258.226 
256.148 
256.624 
259.547 
259.404 
261.629 
261.924 
261.589 
264.59 
262.99 
264.514 
266.447 
263.068 
266.437 
267.623 
265.839 
268.537 
271.927 
269.489 
270.431 
274.572 
271.461 
272.124 
275.058 
275.018 
278.298 
274.784 
276.759 
278.361 
277.846 
276.955 
278.771 
280.546 
279.269 
279.671 
281.893 
282.529 
285.736 
281.647 
284.432 
285.518 
289.456 
291.217 
290.487 
288.464 
291.533 
291.015 
294.576 
292.096 
291.772 
291.606 
299.555 
297.055 
296.213 
297.553 
296.44 
296.796 
301.905 
297.443 
300.67 
300.034 
302.024 
302.513 
304.2 
303.889 
304.7 
306.208 
305.95 
308.83 
307.738 
311.873 
312.451 
