ITEM: TIMESTEP
183000000
ITEM: NUMBER OF CELLS
100
ITEM: BOX BOUNDS ss pp pp
0 0.001
0 1e-05
-0.5 0.5
ITEM: CELLS f_temp1[*] 
232.882 
233.869 
235.833 
236.526 
238.538 
238.91 
239.786 
240.295 
242.73 
242.546 
245.556 
243.189 
242.986 
244.821 
246.663 
244.202 
246.899 
249.169 
250.325 
252.746 
252.282 
252.036 
248.791 
252.772 
254.17 
258.314 
255.045 
256.487 
257.304 
255.653 
259.59 
259.426 
261.089 
262.648 
264.565 
264.073 
262.214 
264.195 
264.631 
265.165 
265.121 
267.959 
269.143 
269.949 
266.993 
270.871 
266.521 
272.128 
270.711 
273.303 
274.75 
273.194 
272.98 
273.607 
275.345 
272.313 
278.033 
277.195 
276.273 
278.468 
280.745 
284.328 
277.315 
282.152 
283.615 
285.783 
285.008 
281.706 
282.222 
287.64 
283.92 
284.992 
286.342 
290.985 
288.451 
286.414 
290.831 
290.92 
294.594 
293.238 
294.584 
294.042 
294.273 
293.924 
293.235 
293.965 
296.899 
298.537 
297.983 
298.7 
302.637 
301.502 
304.113 
304.431 
305.8 
306.729 
307.962 
307.982 
311.109 
309.576 
