ITEM: TIMESTEP
58600000
ITEM: NUMBER OF CELLS
100
ITEM: BOX BOUNDS ss pp pp
0 0.001
0 1e-05
-0.5 0.5
ITEM: CELLS f_temp1[*] 
234.821 
234.258 
232.104 
236.334 
235.347 
236.63 
240.161 
237.006 
240.412 
241.502 
242.06 
244.06 
244.5 
247.996 
245.954 
246.469 
247.821 
249.832 
247.88 
251.823 
251.36 
252.983 
253.265 
254.694 
253.184 
253.428 
256.685 
256.597 
258.132 
256.917 
258.983 
256.691 
259.49 
259.195 
262.519 
261.158 
261.31 
263.92 
265.072 
265.109 
263.985 
267.845 
265.581 
271.138 
270.725 
269.954 
270.939 
270.087 
271.741 
276.205 
271.45 
274.988 
273.264 
273.787 
274.696 
280.828 
274.831 
279.367 
279.64 
277.537 
278.251 
282.777 
285.551 
285.167 
280.666 
279.524 
284.852 
286.111 
285.09 
287.479 
289.944 
288.845 
292.053 
291.724 
290.167 
292.378 
293.161 
292.757 
292.772 
291.709 
295.032 
294.657 
297.932 
293.967 
297.746 
298.537 
301.697 
300.154 
303.745 
300.376 
302.376 
302.28 
301.771 
302.449 
306.733 
304.871 
309.188 
308.463 
307.755 
310.894 
