ITEM: TIMESTEP
800000
ITEM: NUMBER OF CELLS
100
ITEM: BOX BOUNDS ss pp pp
0 0.001
0 1e-05
-0.5 0.5
ITEM: CELLS f_temp1[*] 
234.766 
237.317 
235.914 
237.415 
237.906 
240.864 
242.313 
239.886 
241.835 
241.096 
243.477 
244.399 
247.344 
246.746 
248.386 
249.404 
248.396 
246.975 
250.212 
251.344 
251.217 
252.577 
251.355 
252.338 
254.173 
256.537 
255.395 
259.715 
257.477 
260.265 
261.585 
260.822 
265.192 
261.197 
263.064 
262.915 
263.35 
265.597 
267.68 
265.214 
266.804 
267.769 
269.159 
269.983 
267.835 
270.033 
274.685 
272.692 
271.554 
273.954 
274.675 
278.322 
274.245 
273.593 
276.217 
279.292 
276.218 
279.032 
277.035 
281.793 
285.306 
284.116 
281.265 
283.49 
283.451 
284.991 
285.863 
287.644 
287.806 
286.441 
289.71 
289.609 
290.829 
290.735 
288.222 
294.544 
292.231 
292.485 
290.623 
292.908 
292.946 
296.79 
296.679 
299.938 
298.862 
300.692 
300.011 
301.766 
300.774 
301.335 
301.122 
304.465 
303.159 
303.894 
304.453 
303.756 
305.366 
309.44 
309.507 
314.358 
