ITEM: TIMESTEP
149300000
ITEM: NUMBER OF CELLS
100
ITEM: BOX BOUNDS ss pp pp
0 0.001
0 1e-05
-0.5 0.5
ITEM: CELLS f_temp1[*] 
234.198 
235.604 
236.193 
237.167 
234.829 
239.117 
240.292 
239.566 
241.053 
244.293 
241.116 
244.414 
247.104 
243.514 
245.446 
245.275 
247.97 
247.463 
247.956 
251.505 
252.561 
251.857 
250.749 
249.774 
254.311 
254.661 
256.63 
254.609 
256.368 
257.068 
257.4 
259.78 
257.294 
262.574 
258.93 
259.856 
264.007 
263.567 
263.386 
267.44 
267.548 
266.695 
264.83 
266.381 
269.201 
266.798 
268.965 
266.568 
270.456 
271.427 
272.781 
273.03 
273.296 
272.998 
277.336 
276.226 
277.013 
276.862 
277.325 
275.656 
277.234 
278.366 
284.275 
282.335 
281.552 
283.34 
284.701 
288.6 
285.667 
285.356 
288.723 
286.777 
290.011 
288.86 
288.321 
290.752 
292.32 
294.788 
289.051 
291.178 
293.298 
293.013 
297.422 
295.941 
294.897 
301.297 
296.868 
301.7 
302.779 
304.369 
303.795 
301.197 
301.366 
303.864 
307.115 
303.06 
307.751 
309.079 
309.501 
312.263 
