ITEM: TIMESTEP
87000000
ITEM: NUMBER OF CELLS
100
ITEM: BOX BOUNDS ss pp pp
0 0.001
0 1e-05
-0.5 0.5
ITEM: CELLS f_temp1[*] 
230.89 
232.769 
233.998 
236.503 
237.764 
237.855 
241.258 
240.541 
241.475 
241.053 
243.524 
243.89 
245.64 
246.321 
246.776 
246.856 
245.762 
249.348 
246.762 
251.059 
251.603 
254.815 
251.022 
252.953 
256.625 
254.854 
255.084 
258.233 
255.739 
256.967 
258.697 
260.338 
259.241 
262.746 
263.1 
262.66 
264.96 
263.858 
264.075 
264.701 
268.845 
267.592 
266.536 
267.687 
270.861 
270.102 
270.752 
271.583 
275.237 
269.588 
270.175 
274.411 
275.534 
275.252 
274.698 
276.669 
277.389 
275.914 
279.924 
277.546 
279.609 
280.899 
282.287 
279.393 
279.444 
282.057 
284.269 
284.875 
285.444 
286.621 
288.982 
289.411 
287.548 
291.375 
289.752 
289.23 
292.544 
291.919 
290.449 
293.572 
289.812 
295.013 
294.765 
296.858 
293.817 
297.549 
299.95 
303.086 
302.659 
303.836 
301.955 
303.464 
302.782 
302.871 
306.472 
307.816 
308.904 
304.105 
308.371 
311.662 
