ITEM: TIMESTEP
0
ITEM: NUMBER OF CELLS
100
ITEM: BOX BOUNDS ss rr pp
0 1
0 0.01
-0.5 0.5
ITEM: CELLS f_temp1[*] 
0 
0 
0 
0 
0 
0 
0 
0 
0 
0 
0 
0 
0 
0 
0 
0 
0 
0 
0 
0 
0 
0 
0 
0 
0 
0 
0 
0 
0 
0 
0 
0 
0 
0 
0 
0 
0 
0 
0 
0 
0 
0 
0 
0 
0 
0 
0 
0 
0 
0 
0 
0 
0 
0 
0 
0 
0 
0 
0 
0 
0 
0 
0 
0 
0 
0 
0 
0 
0 
0 
0 
0 
0 
0 
0 
0 
0 
0 
0 
0 
0 
0 
0 
0 
0 
0 
0 
0 
0 
0 
0 
0 
0 
0 
0 
0 
0 
0 
0 
0 
ITEM: TIMESTEP
100
ITEM: NUMBER OF CELLS
100
ITEM: BOX BOUNDS ss rr pp
0 1
0 0.01
-0.5 0.5
ITEM: CELLS f_temp1[*] 
1215.43 
1228.85 
1203.73 
1230.01 
1230.3 
1230.54 
1222.96 
1191.25 
1221.33 
1191.16 
1284.01 
1206.7 
1245.89 
1241.24 
1230.08 
1271.31 
1273.27 
1179.54 
1209.33 
1281.64 
1209 
1273.89 
1220.14 
1161.22 
1239.08 
1195.08 
1169.16 
1277.89 
1213.54 
1218.65 
1222.68 
1205.17 
1242.52 
1225.95 
1221.6 
1217.4 
1219.1 
1161.26 
1215.62 
1214.3 
1225.77 
1268.81 
1226.89 
1319.02 
1216.6 
1181.7 
1230.02 
1218.56 
1212.54 
1228.43 
1247.65 
1241.45 
1250.77 
1216.18 
1267.64 
1197.46 
1248.57 
1237.94 
1243.24 
1228.96 
1222.36 
1184.7 
1255.27 
1272.13 
1204.05 
1250.63 
1238.77 
1210.44 
1219.77 
1231.84 
1210.04 
1227.43 
1245.52 
1199.67 
1184.05 
1159.73 
1244.77 
1248.56 
1233.18 
1289.99 
1218.88 
1245.35 
1259.03 
1182.96 
1247.14 
1140.64 
1187.94 
1193.99 
1260.91 
1242.59 
1200.66 
1220.23 
1222.95 
1233.39 
1270.86 
1190.55 
1231.68 
1219.05 
1148.22 
1167.47 
ITEM: TIMESTEP
200
ITEM: NUMBER OF CELLS
100
ITEM: BOX BOUNDS ss rr pp
0 1
0 0.01
-0.5 0.5
ITEM: CELLS f_temp1[*] 
1285.9 
1216.35 
1231.9 
1187.72 
1235.76 
1214.22 
1217.32 
1251.13 
1214.89 
1227.14 
1220.81 
1244.74 
1198.44 
1247.6 
1172.14 
1226.06 
1177.65 
1267.94 
1228.37 
1240.38 
1201.14 
1237.46 
1194.89 
1247.86 
1253.12 
1223 
1203.13 
1196.75 
1245.76 
1286.72 
1241.96 
1247.87 
1171.45 
1243.36 
1244.26 
1149.92 
1201.36 
1226.55 
1280.08 
1203.77 
1224.26 
1194.4 
1247.38 
1267.69 
1213.82 
1254.61 
1149.61 
1256.28 
1306.74 
1243.08 
1207.05 
1226.89 
1240.04 
1221.76 
1217.63 
1230.1 
1284.3 
1230.45 
1228.34 
1309.27 
1239.59 
1166.08 
1232.95 
1207.77 
1230.1 
1245.52 
1201.53 
1244.22 
1199.55 
1179.94 
1247.63 
1255.27 
1163.43 
1233.97 
1201.66 
1270.67 
1189.68 
1205.63 
1239.83 
1260.14 
1255.82 
1247.97 
1228.49 
1195 
1222.27 
1254.91 
1264.42 
1244.1 
1183.68 
1295.93 
1244.4 
1200.82 
1246.94 
1160.5 
1222.76 
1228.39 
1229.76 
1238.36 
1204.05 
1250.95 
ITEM: TIMESTEP
300
ITEM: NUMBER OF CELLS
100
ITEM: BOX BOUNDS ss rr pp
0 1
0 0.01
-0.5 0.5
ITEM: CELLS f_temp1[*] 
1199.9 
1301.72 
1281.57 
1229.4 
1219.63 
1153.34 
1201.4 
1237.85 
1188.96 
1226.43 
1245.07 
1210.51 
1221.94 
1232.64 
1256.4 
1211.86 
1132.97 
1215.49 
1195.32 
1192.96 
1231.93 
1218.14 
1219.35 
1176.34 
1277.83 
1316.64 
1218.13 
1188.33 
1289.42 
1191.84 
1206.02 
1199.89 
1242.41 
1276.04 
1241.99 
1226.01 
1249.74 
1236.29 
1204.7 
1142.82 
1248.13 
1241.2 
1256.84 
1256.09 
1166.25 
1227.32 
1220.4 
1272.45 
1226.21 
1200.91 
1239.69 
1235.23 
1230.16 
1240.3 
1244.84 
1201.66 
1226.37 
1252.92 
1236.92 
1198.26 
1291.43 
1250.92 
1256.62 
1161.67 
1222.54 
1223.63 
1231.58 
1275.14 
1290.94 
1222.92 
1198.24 
1267.89 
1267.46 
1203.75 
1274.2 
1263.17 
1222.98 
1163.79 
1234.42 
1247.41 
1227.3 
1246.15 
1196.84 
1312.02 
1231.04 
1193.73 
1238.02 
1185.97 
1196.6 
1169.74 
1247.19 
1192.33 
1242.98 
1239.32 
1215.51 
1180.56 
1240.63 
1224.88 
1261.7 
1198.9 
ITEM: TIMESTEP
400
ITEM: NUMBER OF CELLS
100
ITEM: BOX BOUNDS ss rr pp
0 1
0 0.01
-0.5 0.5
ITEM: CELLS f_temp1[*] 
1218.86 
1231.54 
1249.85 
1181.09 
1249.86 
1256.79 
1288.54 
1173.21 
1233.29 
1151.35 
1216.06 
1247.57 
1215.54 
1237.16 
1222.7 
1211.65 
1245.47 
1193.46 
1213.23 
1274.65 
1195.53 
1188.11 
1178.77 
1219.33 
1154.73 
1172.81 
1226.5 
1241.35 
1237.23 
1269.37 
1252.89 
1280.71 
1293.43 
1252.17 
1211.59 
1256.36 
1257.11 
1214.66 
1257.44 
1174 
1248.6 
1201.24 
1224.64 
1228.9 
1215.28 
1234.83 
1267.1 
1190.03 
1198.13 
1272.62 
1234.68 
1247.56 
1280.98 
1217.97 
1236.69 
1198.71 
1221.13 
1166.1 
1197.24 
1227.46 
1308.23 
1272.92 
1235.65 
1194.17 
1193.78 
1201.18 
1186.75 
1255.04 
1243.15 
1224.25 
1233.01 
1269.47 
1233.73 
1210.11 
1226.77 
1236.3 
1254.39 
1255.02 
1212.29 
1213.36 
1193.59 
1164.51 
1136.87 
1230.24 
1245.8 
1179.02 
1235.22 
1240.2 
1216.69 
1214.87 
1252.14 
1166.19 
1267.49 
1187.18 
1216.4 
1225.12 
1261.6 
1216.79 
1182.2 
1252.26 
ITEM: TIMESTEP
500
ITEM: NUMBER OF CELLS
100
ITEM: BOX BOUNDS ss rr pp
0 1
0 0.01
-0.5 0.5
ITEM: CELLS f_temp1[*] 
1202.01 
1261.85 
1232.71 
1211.65 
1254.11 
1193.91 
1262.47 
1189.49 
1244 
1215.98 
1136.11 
1202.47 
1240.9 
1204.95 
1280.64 
1192.85 
1177.31 
1201.28 
1226.6 
1209.7 
1252.77 
1206.22 
1242.23 
1237.78 
1198.67 
1227.45 
1244.37 
1176.63 
1167.22 
1218.98 
1203.75 
1230.3 
1221.06 
1157.68 
1191.24 
1254.1 
1203.12 
1217.38 
1226.81 
1186.88 
1201.51 
1212.02 
1151 
1153.17 
1228.97 
1241.32 
1171.91 
1210.64 
1187.41 
1163.78 
1225.09 
1193.57 
1216.72 
1243.48 
1181.9 
1224.79 
1270.78 
1250.78 
1205.04 
1279.57 
1207.75 
1193.09 
1232.97 
1240.27 
1245.66 
1306.79 
1222.02 
1218.39 
1260.33 
1213.43 
1233.86 
1221.31 
1183.29 
1242.46 
1240.89 
1258.04 
1260.46 
1241.98 
1198.17 
1196.36 
1240.77 
1194.68 
1259 
1149.41 
1182.88 
1180.28 
1216.39 
1267.64 
1202.97 
1256.16 
1232.96 
1225.63 
1247.02 
1192.42 
1264.79 
1226.68 
1274.25 
1278.4 
1210.37 
1279.04 
ITEM: TIMESTEP
600
ITEM: NUMBER OF CELLS
100
ITEM: BOX BOUNDS ss rr pp
0 1
0 0.01
-0.5 0.5
ITEM: CELLS f_temp1[*] 
1211.57 
1258.06 
1196.91 
1228.47 
1204.24 
1260.99 
1217.48 
1263.16 
1218.8 
1203.57 
1246.68 
1284.6 
1232.13 
1227.68 
1207.43 
1188.82 
1284.76 
1184.64 
1195.84 
1224.12 
1254.96 
1198.13 
1218.52 
1231.1 
1205.9 
1219.19 
1203.31 
1225.41 
1252.84 
1165.98 
1256.37 
1185.57 
1233.21 
1208.45 
1267.51 
1192.38 
1315.39 
1206.64 
1249.3 
1259.08 
1251.33 
1250.75 
1260.42 
1226.79 
1267.24 
1242.18 
1249.55 
1239.39 
1249.69 
1185.45 
1251.04 
1201.46 
1240.19 
1265.56 
1188.34 
1215.92 
1236.64 
1162.75 
1244.48 
1172.22 
1194.44 
1264.92 
1248.78 
1243.53 
1209.22 
1265.71 
1237.89 
1227.48 
1224.95 
1212.28 
1241.83 
1200.03 
1205.78 
1174.21 
1223.12 
1286.19 
1278.92 
1195.17 
1292.64 
1231.73 
1247.66 
1305.54 
1169.23 
1257.89 
1214.81 
1247.77 
1184.83 
1188.34 
1220.64 
1216.94 
1192.5 
1260.35 
1197.5 
1201.77 
1214.17 
1209.79 
1229.64 
1171.78 
1179.55 
1169.85 
ITEM: TIMESTEP
700
ITEM: NUMBER OF CELLS
100
ITEM: BOX BOUNDS ss rr pp
0 1
0 0.01
-0.5 0.5
ITEM: CELLS f_temp1[*] 
1212.16 
1197.08 
1229.06 
1264.73 
1242.08 
1279.63 
1223.08 
1208.78 
1233.12 
1209.68 
1226.35 
1189.16 
1286.22 
1259.12 
1264.89 
1255.88 
1178.73 
1186.31 
1213.81 
1235.44 
1239.97 
1305.32 
1246.56 
1193.22 
1251.22 
1213.55 
1215.64 
1191.45 
1226.38 
1151.53 
1169.36 
1239.78 
1250.26 
1241.02 
1226.86 
1219.81 
1235.26 
1236.21 
1221.29 
1162.05 
1208.45 
1219.68 
1244.24 
1184.16 
1177.72 
1250.73 
1217.63 
1187.27 
1223.82 
1233.06 
1215.03 
1298.75 
1257.82 
1222.47 
1258.05 
1220.73 
1262.57 
1192.52 
1229.73 
1188.24 
1220.16 
1213.52 
1250.16 
1224.51 
1248.27 
1217.21 
1204.64 
1234.64 
1283.55 
1227.84 
1221.47 
1202.76 
1224.95 
1176.73 
1224.21 
1197.64 
1238.52 
1213.63 
1220.27 
1179.14 
1212.2 
1249.97 
1203.52 
1212.9 
1297.12 
1245.1 
1232.86 
1216.85 
1253.54 
1217.85 
1281.84 
1292.12 
1277.09 
1205.16 
1249.13 
1198.18 
1237.85 
1238.77 
1216.29 
1194.99 
ITEM: TIMESTEP
800
ITEM: NUMBER OF CELLS
100
ITEM: BOX BOUNDS ss rr pp
0 1
0 0.01
-0.5 0.5
ITEM: CELLS f_temp1[*] 
1149.27 
1172.53 
1229.79 
1297.19 
1243.62 
1254.13 
1219.31 
1248.05 
1262.86 
1216.81 
1232.01 
1205.34 
1245.12 
1228 
1225.46 
1258.09 
1267.67 
1222.01 
1260.43 
1212.45 
1194.93 
1209.61 
1254.64 
1175.37 
1269.93 
1234.09 
1169.32 
1245 
1260.48 
1304.71 
1196.19 
1274.23 
1314.43 
1210.94 
1189.42 
1210.43 
1208.47 
1200.01 
1198.83 
1215.3 
1260.1 
1209.06 
1175.62 
1293.05 
1209.91 
1252.66 
1242.56 
1217.32 
1186.73 
1193.93 
1214.95 
1200.72 
1256.37 
1193.59 
1201.14 
1270.53 
1205.41 
1240.49 
1293.37 
1244.64 
1235.64 
1221.1 
1232.02 
1216.08 
1229.39 
1217.51 
1242.41 
1155.23 
1263.6 
1269.14 
1248.47 
1187.45 
1295.85 
1210.68 
1205.21 
1218.05 
1185.83 
1220.43 
1209.35 
1220.22 
1246.5 
1228.74 
1205.08 
1224.81 
1250.54 
1243 
1272.62 
1190.22 
1175.46 
1243.12 
1164.57 
1224.93 
1228.22 
1213.96 
1285.98 
1255.07 
1194.02 
1251.2 
1210.68 
1222.95 
ITEM: TIMESTEP
900
ITEM: NUMBER OF CELLS
100
ITEM: BOX BOUNDS ss rr pp
0 1
0 0.01
-0.5 0.5
ITEM: CELLS f_temp1[*] 
1240.48 
1212.75 
1192.36 
1243.93 
1241.64 
1243.93 
1244.09 
1267.39 
1233.26 
1212.13 
1224.59 
1192.15 
1274.29 
1192.69 
1255.98 
1257.72 
1241.64 
1351.34 
1233.32 
1225.14 
1191.28 
1277.73 
1189.14 
1188.18 
1188.59 
1204.8 
1233.76 
1237.55 
1192.53 
1240.46 
1229.36 
1210.26 
1251.94 
1192.95 
1228.8 
1113.33 
1262.01 
1255.42 
1176.74 
1264.2 
1196.32 
1240.72 
1220.45 
1204.74 
1244.52 
1185.71 
1276.48 
1282.39 
1245.58 
1212.48 
1241.43 
1237.54 
1223.7 
1178.87 
1205.44 
1227.25 
1224.41 
1157.1 
1277.49 
1280.61 
1129.2 
1243.04 
1198.3 
1167.91 
1212.77 
1187.35 
1208.42 
1267.69 
1152.25 
1241.26 
1171.85 
1266.87 
1192.99 
1199.03 
1260.7 
1210.84 
1267.13 
1257.34 
1256.64 
1212.44 
1259.35 
1203.69 
1231.2 
1281.11 
1221.93 
1197.29 
1206.56 
1247.51 
1184.6 
1231.3 
1219.09 
1228.09 
1209.93 
1190.55 
1253.48 
1205.52 
1228.98 
1215.03 
1236.18 
1229.25 
ITEM: TIMESTEP
1000
ITEM: NUMBER OF CELLS
100
ITEM: BOX BOUNDS ss rr pp
0 1
0 0.01
-0.5 0.5
ITEM: CELLS f_temp1[*] 
1273.98 
1203.26 
1187.46 
1151.71 
1203.6 
1194.8 
1143.82 
1240.78 
1196.71 
1225.75 
1222.85 
1198.14 
1201.35 
1225.34 
1202.85 
1224.42 
1207.99 
1192.94 
1149.76 
1195.98 
1229.9 
1169.33 
1236.41 
1224.81 
1207.63 
1212.76 
1193.45 
1177.9 
1264.07 
1272.9 
1240.4 
1170.55 
1232.82 
1209.77 
1217.31 
1249.16 
1237.62 
1284.48 
1248.39 
1265.18 
1244.79 
1240.88 
1198.71 
1218.96 
1205.54 
1294.12 
1264.73 
1267.56 
1257.01 
1234.62 
1238.85 
1301.88 
1271.16 
1300.39 
1174.23 
1219.05 
1291.31 
1250.58 
1204.39 
1193.71 
1236.35 
1233.09 
1206.84 
1275.88 
1220.67 
1195.01 
1252.05 
1227.67 
1285.03 
1249.01 
1241.83 
1249.03 
1243.77 
1264.96 
1201.84 
1246.63 
1171.1 
1211.38 
1293.34 
1188.6 
1158.71 
1271.04 
1243.99 
1247.79 
1225.57 
1226.22 
1232.02 
1201.09 
1199.68 
1259.61 
1244.86 
1282.31 
1235.85 
1193.05 
1180.89 
1280.08 
1254.81 
1255.25 
1154.62 
1267.27 
ITEM: TIMESTEP
1100
ITEM: NUMBER OF CELLS
100
ITEM: BOX BOUNDS ss rr pp
0 1
0 0.01
-0.5 0.5
ITEM: CELLS f_temp1[*] 
1246.31 
1186.4 
1153.71 
1276.18 
1168.72 
1215.76 
1253.87 
1270.23 
1214.49 
1198.2 
1195.09 
1189.08 
1232.05 
1164.92 
1297.29 
1263.15 
1195.94 
1251.68 
1248.68 
1313.28 
1247.18 
1185.34 
1288.28 
1227.01 
1230.63 
1229.38 
1276.92 
1263.36 
1219.81 
1219.1 
1277.99 
1199.19 
1198.27 
1225.08 
1175.91 
1213.05 
1203.39 
1174.43 
1177.21 
1240.53 
1195.96 
1206.21 
1216.87 
1210.38 
1228.25 
1162.82 
1257.75 
1191.27 
1235.86 
1279.48 
1210.2 
1308.39 
1263.81 
1262.89 
1232.23 
1282.68 
1282.83 
1223.23 
1285.05 
1253 
1219.48 
1219.39 
1195.4 
1257.37 
1241.2 
1235.27 
1265.01 
1171.01 
1216.43 
1306.02 
1168.29 
1176.98 
1216.14 
1283.58 
1231.88 
1203.79 
1179.9 
1229.45 
1297.85 
1184.53 
1209.21 
1242.94 
1192.87 
1221.85 
1174.82 
1225.1 
1221.75 
1291.69 
1255.9 
1221.87 
1240.66 
1243.82 
1265.14 
1215.98 
1196.69 
1232.79 
1223.51 
1179.59 
1226.59 
1250.19 
ITEM: TIMESTEP
1200
ITEM: NUMBER OF CELLS
100
ITEM: BOX BOUNDS ss rr pp
0 1
0 0.01
-0.5 0.5
ITEM: CELLS f_temp1[*] 
1234.16 
1239.63 
1237.49 
1293.28 
1185.57 
1212.76 
1158.5 
1190.23 
1250.81 
1247.4 
1237.99 
1213.09 
1206.1 
1279.93 
1201 
1207.09 
1224.34 
1229.39 
1211.02 
1168.42 
1216.2 
1238.06 
1210.14 
1205.94 
1235.38 
1196.69 
1256.44 
1282.03 
1246 
1272 
1201.01 
1242.01 
1242.44 
1225.66 
1243.04 
1226.77 
1280.94 
1246.94 
1203.48 
1221.76 
1197.51 
1211.17 
1243.57 
1193.36 
1212.76 
1261.24 
1161.33 
1225.22 
1186.12 
1222.43 
1264.69 
1212.08 
1220.68 
1241.91 
1191.13 
1198.96 
1215.18 
1215.69 
1231.4 
1216.41 
1208.94 
1291.01 
1231.36 
1185.07 
1269.66 
1244.53 
1180.07 
1200.53 
1269.19 
1230.32 
1240.91 
1214.47 
1233.75 
1156.5 
1205.25 
1200.92 
1233.77 
1210.71 
1252.04 
1225.15 
1217.5 
1261.71 
1233.69 
1187.88 
1255.25 
1233.69 
1201.34 
1219.34 
1283.21 
1246.87 
1256.32 
1227.66 
1300.26 
1321.56 
1247.15 
1249.84 
1195.53 
1216.68 
1308.53 
1256.52 
ITEM: TIMESTEP
1300
ITEM: NUMBER OF CELLS
100
ITEM: BOX BOUNDS ss rr pp
0 1
0 0.01
-0.5 0.5
ITEM: CELLS f_temp1[*] 
1234.57 
1224.59 
1241.81 
1199.26 
1235.49 
1224.99 
1267.71 
1218.6 
1208.98 
1252.27 
1143.64 
1239.37 
1215.93 
1202.89 
1176.81 
1164.44 
1219.01 
1215.57 
1194.52 
1280.17 
1221.92 
1272.76 
1281.65 
1187.83 
1262.65 
1225.32 
1271.14 
1258.52 
1269.73 
1263.82 
1225.18 
1205.76 
1266.61 
1189.15 
1202.76 
1135.18 
1231.02 
1188.04 
1173.18 
1271 
1156.8 
1218.99 
1210.33 
1233.21 
1174.47 
1197.54 
1254.77 
1228.29 
1205.85 
1258.61 
1178.54 
1242.06 
1223.02 
1315.05 
1219.96 
1277.6 
1221.8 
1275.16 
1252.8 
1205.76 
1197.57 
1232.64 
1183.77 
1231.68 
1199.93 
1264.95 
1213.69 
1155.05 
1204.68 
1216.66 
1257.63 
1253.8 
1230.93 
1233.99 
1210.32 
1266.23 
1219.09 
1234.18 
1184.7 
1179.95 
1237.2 
1266 
1264.99 
1260.42 
1272.34 
1209.15 
1235.64 
1224.55 
1286.12 
1246.14 
1199.05 
1201.87 
1223.5 
1232.58 
1212.41 
1201.64 
1199.17 
1261.9 
1249.47 
1192.45 
ITEM: TIMESTEP
1400
ITEM: NUMBER OF CELLS
100
ITEM: BOX BOUNDS ss rr pp
0 1
0 0.01
-0.5 0.5
ITEM: CELLS f_temp1[*] 
1208.49 
1240.21 
1231.16 
1217.59 
1281.04 
1224.32 
1256.83 
1259.75 
1263.3 
1259.93 
1222.54 
1244.26 
1195.57 
1282.5 
1290.81 
1226.17 
1256.45 
1230.97 
1214.55 
1212.96 
1166.31 
1229.78 
1214.72 
1191.06 
1253.27 
1211.52 
1246.67 
1214.17 
1207.65 
1210.4 
1213.36 
1237.85 
1239.69 
1249.08 
1193.49 
1319.32 
1206.22 
1222.62 
1247.85 
1170.67 
1266.83 
1261.79 
1192.53 
1262.22 
1254.33 
1270.32 
1203.49 
1224.43 
1194.35 
1304.68 
1207.62 
1227.2 
1167.12 
1332.27 
1227.84 
1161.28 
1182.69 
1179.98 
1215.23 
1189.89 
1276.54 
1240.66 
1271.54 
1179.54 
1170.84 
1216.7 
1166.85 
1216.56 
1211.44 
1206.03 
1234.01 
1184.28 
1252.64 
1224.17 
1174.47 
1218.86 
1260.72 
1183.1 
1177.7 
1251.86 
1239.55 
1199.17 
1223.97 
1228.87 
1237.35 
1234.13 
1237.33 
1239.94 
1245.14 
1241.23 
1190.95 
1222.11 
1232.8 
1226.85 
1204.22 
1195.7 
1195.22 
1182.27 
1201.22 
1179.86 
ITEM: TIMESTEP
1500
ITEM: NUMBER OF CELLS
100
ITEM: BOX BOUNDS ss rr pp
0 1
0 0.01
-0.5 0.5
ITEM: CELLS f_temp1[*] 
1191.12 
1230.94 
1240.37 
1227.22 
1241.93 
1188.61 
1163.48 
1228.22 
1186.69 
1194.44 
1198.91 
1280.13 
1205.84 
1246.18 
1262.92 
1232.04 
1244.27 
1229.93 
1186.04 
1203.68 
1250.1 
1187.95 
1211.73 
1226.01 
1224.32 
1194.12 
1234.02 
1242.44 
1261.83 
1211.62 
1260.12 
1289.54 
1224.78 
1181.2 
1229.05 
1196.95 
1235.49 
1244.75 
1289.3 
1222.25 
1226.35 
1271.79 
1231.67 
1261.83 
1233.94 
1205.28 
1215.66 
1235.7 
1240.53 
1256.92 
1226.08 
1238.2 
1221.08 
1235.35 
1296.07 
1210.41 
1240.31 
1239.25 
1230.77 
1264.29 
1283.72 
1279.35 
1224.77 
1230.83 
1221.76 
1274.54 
1237.39 
1237.58 
1192.61 
1233.42 
1280.57 
1212.59 
1239.91 
1191.25 
1186.68 
1215.67 
1255.99 
1257.84 
1204.07 
1310.6 
1244.23 
1215.56 
1215.18 
1213.29 
1217.62 
1209.75 
1221.11 
1230.74 
1209.48 
1227.01 
1160.78 
1278.15 
1324.09 
1223.11 
1205.46 
1267.76 
1286.46 
1255.35 
1243.66 
1227.19 
ITEM: TIMESTEP
1600
ITEM: NUMBER OF CELLS
100
ITEM: BOX BOUNDS ss rr pp
0 1
0 0.01
-0.5 0.5
ITEM: CELLS f_temp1[*] 
1214.13 
1246.75 
1217.16 
1179.49 
1237.22 
1250.54 
1268.89 
1247.95 
1179.58 
1216.5 
1191.7 
1220.24 
1224.73 
1175.79 
1271.99 
1239.85 
1206.82 
1200.69 
1242.24 
1251.6 
1206.08 
1238.68 
1235 
1214.99 
1195.89 
1213.85 
1230.09 
1218.57 
1212.55 
1267.9 
1235.13 
1195.77 
1205.35 
1199.5 
1253.23 
1271.37 
1229.4 
1267.03 
1231.15 
1263.13 
1253.81 
1201.81 
1206.66 
1171.21 
1190.88 
1225.51 
1188.43 
1238.52 
1229.95 
1285.75 
1229.49 
1203.8 
1272.82 
1262.8 
1239.7 
1199 
1221.61 
1234.32 
1243.3 
1214.08 
1252.89 
1245.95 
1241.16 
1204.23 
1242.81 
1172.76 
1201.48 
1223.57 
1243.65 
1243.97 
1249.81 
1242.85 
1167.89 
1197.82 
1251.55 
1227.46 
1184.7 
1210.89 
1229.22 
1215.76 
1247.02 
1245.11 
1204.91 
1215.7 
1220.19 
1236.81 
1253.28 
1223.11 
1166.18 
1290.95 
1235.91 
1176.14 
1183 
1191.99 
1171.22 
1255.14 
1195.32 
1256.39 
1218.14 
1220.99 
ITEM: TIMESTEP
1700
ITEM: NUMBER OF CELLS
100
ITEM: BOX BOUNDS ss rr pp
0 1
0 0.01
-0.5 0.5
ITEM: CELLS f_temp1[*] 
1239.19 
1173.45 
1153.95 
1208.05 
1234.36 
1229.5 
1213.76 
1214.66 
1310.72 
1245.78 
1260.84 
1263.23 
1243.3 
1188.67 
1172.29 
1186.89 
1181.03 
1231.07 
1213.46 
1229.75 
1190.11 
1285.44 
1179.98 
1228.81 
1226.68 
1234.27 
1277.49 
1259.75 
1213.16 
1210.13 
1156.17 
1299.95 
1227.78 
1203.35 
1219.91 
1197.66 
1214.67 
1234.03 
1183.68 
1174.72 
1252.59 
1263.34 
1220.01 
1203.37 
1190.69 
1251.38 
1232.01 
1175.4 
1183.86 
1287.97 
1208.61 
1181.46 
1208.39 
1284.11 
1257.32 
1206.63 
1223.89 
1213.87 
1201.42 
1237.78 
1242.08 
1208.97 
1239.72 
1268.15 
1281.13 
1249.61 
1198.02 
1222.44 
1181.38 
1186.72 
1211.27 
1230.04 
1167.09 
1259.1 
1240.88 
1251.03 
1207.43 
1233.96 
1243.8 
1244.67 
1251.87 
1270.08 
1206.29 
1237.37 
1213.54 
1257.82 
1146.11 
1136.96 
1199.76 
1183.2 
1205.19 
1258.22 
1233.16 
1209.23 
1188.89 
1238.84 
1157.27 
1201.04 
1224.54 
1258.67 
ITEM: TIMESTEP
1800
ITEM: NUMBER OF CELLS
100
ITEM: BOX BOUNDS ss rr pp
0 1
0 0.01
-0.5 0.5
ITEM: CELLS f_temp1[*] 
1236.84 
1248.7 
1241.04 
1209.92 
1246.01 
1199.64 
1210.29 
1186.2 
1271.21 
1184.83 
1190.8 
1180.78 
1201.51 
1246.93 
1233.47 
1272.27 
1214.27 
1201.34 
1241.54 
1214.16 
1240.57 
1226.1 
1234.59 
1219.22 
1219.48 
1194.13 
1233.59 
1163.65 
1163.1 
1191.44 
1189.36 
1282.62 
1271.97 
1206.62 
1271.34 
1206.67 
1261.93 
1226.77 
1220.59 
1241.78 
1196.14 
1229.84 
1207.39 
1161.59 
1246.14 
1182 
1220.34 
1231.86 
1258.53 
1243.54 
1219.97 
1209.31 
1227.56 
1267.29 
1250.11 
1355.14 
1292.84 
1245.25 
1224.31 
1232.35 
1270.53 
1178.68 
1202.82 
1223.68 
1263.9 
1244.88 
1244.6 
1323.71 
1269.66 
1235.28 
1229.84 
1194.17 
1232.58 
1267.22 
1288.75 
1206.66 
1178.8 
1152.46 
1170.73 
1190.49 
1177.56 
1274.24 
1280.63 
1219.82 
1226.18 
1239.69 
1271.38 
1231.51 
1261.45 
1213.17 
1219.7 
1236.33 
1207.45 
1254.24 
1271.04 
1227.88 
1222.56 
1200.57 
1283.95 
1184.46 
ITEM: TIMESTEP
1900
ITEM: NUMBER OF CELLS
100
ITEM: BOX BOUNDS ss rr pp
0 1
0 0.01
-0.5 0.5
ITEM: CELLS f_temp1[*] 
1227.23 
1198.56 
1193.82 
1172.59 
1238 
1213.43 
1208.62 
1189.15 
1258.73 
1231.78 
1234.36 
1188.45 
1130.11 
1201.35 
1231.82 
1252.26 
1218.49 
1171.23 
1188.06 
1171.7 
1209.99 
1241.19 
1258.33 
1199.39 
1241.05 
1242.01 
1246.69 
1196.23 
1174.15 
1184.77 
1208.64 
1255.86 
1224.79 
1229.46 
1238.36 
1247.55 
1232.77 
1255.9 
1244.93 
1221.2 
1218.48 
1274.24 
1264.3 
1238.21 
1231.59 
1235.08 
1234.88 
1182.91 
1206.82 
1222.58 
1220.08 
1180.47 
1221.97 
1222.58 
1231.71 
1232.01 
1224.97 
1242.16 
1251.38 
1227.31 
1288.34 
1241.53 
1201.46 
1208.51 
1203.21 
1213.17 
1242.35 
1230.35 
1188.41 
1196.52 
1176.57 
1167.78 
1184.38 
1157.12 
1174.27 
1242.91 
1208.33 
1228.88 
1220.14 
1221.68 
1195.24 
1241.65 
1237.16 
1190.11 
1174.49 
1175.6 
1311.46 
1256.85 
1213.54 
1130.31 
1193.11 
1234.15 
1223.89 
1258.81 
1221.33 
1234.6 
1228.84 
1266.94 
1232.2 
1218.31 
ITEM: TIMESTEP
2000
ITEM: NUMBER OF CELLS
100
ITEM: BOX BOUNDS ss rr pp
0 1
0 0.01
-0.5 0.5
ITEM: CELLS f_temp1[*] 
1219.43 
1191.39 
1255.47 
1188.59 
1220.92 
1214.9 
1233.14 
1158.85 
1226.84 
1197.5 
1256.03 
1188.06 
1250.98 
1219.43 
1251.11 
1202.88 
1183.84 
1224.3 
1210.74 
1274.46 
1242.08 
1263.32 
1242.38 
1251.49 
1247.97 
1202.43 
1247.24 
1220.34 
1276.16 
1172.85 
1229.96 
1164.39 
1247.72 
1255.58 
1258.75 
1291.77 
1194.28 
1193.01 
1258.93 
1210.97 
1186.89 
1196.24 
1265.97 
1216.65 
1199.71 
1250.89 
1191.67 
1290.19 
1212.2 
1261.55 
1216.29 
1225.66 
1198.79 
1173.96 
1213.57 
1217.81 
1255.92 
1199.47 
1272.94 
1240.81 
1230.02 
1184.57 
1238.73 
1227.95 
1291.76 
1201.23 
1234.65 
1211.25 
1257.98 
1245.62 
1191.94 
1229 
1198.84 
1179.17 
1194.49 
1223.62 
1130.57 
1258.35 
1206.12 
1269.53 
1202.69 
1191.97 
1232.05 
1284.47 
1239.01 
1214.29 
1278.45 
1240.36 
1227.91 
1220.53 
1234.6 
1236.07 
1236.95 
1230.74 
1231 
1241.43 
1210.31 
1219.17 
1142.7 
1203.92 
ITEM: TIMESTEP
2100
ITEM: NUMBER OF CELLS
100
ITEM: BOX BOUNDS ss rr pp
0 1
0 0.01
-0.5 0.5
ITEM: CELLS f_temp1[*] 
1187.15 
1216.45 
1234.39 
1241.06 
1158.08 
1160.78 
1252.47 
1257.06 
1250.91 
1244.77 
1165.96 
1243.04 
1216.64 
1247.21 
1204.09 
1215.94 
1243.21 
1247.31 
1248.43 
1197.11 
1208.92 
1202.63 
1264.89 
1267.62 
1283.56 
1223.24 
1228.85 
1203.26 
1240.19 
1216.45 
1248.61 
1221.59 
1176.59 
1216.7 
1258.42 
1196.96 
1207.04 
1270.14 
1210.58 
1232.57 
1186.65 
1229.1 
1201.67 
1166.17 
1262.44 
1218.99 
1247.89 
1202.96 
1300.95 
1215.06 
1179.38 
1254.79 
1252.31 
1227.12 
1250.16 
1200.47 
1254.37 
1210.04 
1191.59 
1207.53 
1279.83 
1218.63 
1217.04 
1216.18 
1146.9 
1256.92 
1250.21 
1228.22 
1254.02 
1234.12 
1223.15 
1231.77 
1257.07 
1245.57 
1239.62 
1207.32 
1252.89 
1209.07 
1319.37 
1243.07 
1249.57 
1263.96 
1188.29 
1278.81 
1182.87 
1261.89 
1191.77 
1229.93 
1212.26 
1238.68 
1210.98 
1212.22 
1220.43 
1211.49 
1215.56 
1242.02 
1233.4 
1239.55 
1214.07 
1239.27 
ITEM: TIMESTEP
2200
ITEM: NUMBER OF CELLS
100
ITEM: BOX BOUNDS ss rr pp
0 1
0 0.01
-0.5 0.5
ITEM: CELLS f_temp1[*] 
1195.27 
1271.94 
1232.98 
1194.89 
1245.4 
1200.15 
1208.83 
1209.87 
1263.52 
1225.96 
1172.1 
1261.5 
1277.87 
1258.52 
1210.13 
1200.02 
1186.69 
1252.45 
1180.9 
1270.69 
1199.23 
1253.07 
1160.6 
1190.54 
1164.16 
1204.63 
1267.62 
1261.89 
1248.85 
1185.04 
1238.38 
1292.13 
1270.42 
1316.99 
1195.58 
1257.45 
1204.43 
1206.73 
1198.77 
1233.8 
1221.77 
1239 
1241.7 
1253.76 
1242.52 
1227.61 
1250.67 
1218.94 
1203.87 
1266.58 
1248.52 
1183.73 
1208.1 
1272.32 
1215.46 
1255.39 
1209.81 
1254.04 
1242.73 
1218.81 
1198.85 
1274.11 
1169.58 
1177.29 
1215.45 
1214.72 
1241.16 
1257.28 
1259 
1302 
1201.51 
1222.96 
1183.09 
1264.77 
1243.45 
1148.6 
1244.3 
1210.19 
1265.94 
1265.94 
1220.15 
1241.21 
1258.96 
1207.45 
1277.47 
1293.79 
1188.52 
1327.66 
1206.74 
1201.24 
1246.97 
1242.41 
1228.64 
1208.5 
1192.85 
1203.28 
1291.92 
1222.43 
1199.45 
1194.01 
ITEM: TIMESTEP
2300
ITEM: NUMBER OF CELLS
100
ITEM: BOX BOUNDS ss rr pp
0 1
0 0.01
-0.5 0.5
ITEM: CELLS f_temp1[*] 
1247.3 
1207.09 
1235.2 
1264.12 
1252.49 
1197.32 
1247.42 
1283.89 
1208.04 
1180.43 
1174.29 
1182.94 
1227.02 
1186.25 
1246.86 
1170.45 
1208.39 
1196.64 
1243.42 
1191.42 
1210.18 
1233.75 
1192.23 
1221.58 
1162.95 
1226.74 
1212.73 
1272.11 
1266.81 
1224.54 
1235.52 
1265.69 
1268.62 
1244.89 
1264.94 
1210.04 
1174.2 
1222.58 
1198.62 
1235.38 
1275.4 
1310.31 
1223.55 
1232.27 
1211.39 
1214.74 
1203.51 
1216.36 
1279.93 
1263.93 
1208.54 
1243.42 
1251.3 
1278.89 
1227.72 
1291.73 
1174.73 
1279.29 
1235.07 
1132.82 
1214.54 
1174.32 
1246.58 
1320.16 
1227.37 
1288.39 
1182.36 
1243.48 
1209.04 
1183.21 
1170.52 
1195.57 
1226.88 
1250.77 
1212.58 
1226.69 
1229.35 
1247.91 
1237 
1242.99 
1198.66 
1196.87 
1161.32 
1188.65 
1212.38 
1167.24 
1196.37 
1237.04 
1215.55 
1265.97 
1272.01 
1176.08 
1263.51 
1230.16 
1201.51 
1216.44 
1245.28 
1185.71 
1312.07 
1245.1 
ITEM: TIMESTEP
2400
ITEM: NUMBER OF CELLS
100
ITEM: BOX BOUNDS ss rr pp
0 1
0 0.01
-0.5 0.5
ITEM: CELLS f_temp1[*] 
1208.76 
1203.41 
1235.41 
1217.56 
1185.12 
1230.02 
1176.14 
1240.93 
1283.6 
1189.52 
1272.86 
1154.67 
1188.34 
1239.21 
1153.75 
1225.98 
1227.25 
1242.77 
1298.53 
1216.18 
1257.22 
1230.3 
1185.11 
1246.88 
1184.11 
1181.24 
1237.38 
1213.54 
1199.66 
1288.96 
1278.75 
1174.93 
1189.17 
1179.62 
1195.52 
1214.53 
1236.7 
1225.35 
1143.51 
1177.43 
1208.05 
1242.25 
1230.8 
1205.94 
1166.07 
1223.37 
1199.11 
1183.94 
1208.54 
1220.4 
1204.09 
1307.15 
1225.49 
1229.28 
1277.7 
1225.69 
1245.04 
1204.23 
1309.99 
1238.53 
1260.92 
1172.58 
1244.67 
1223.17 
1220.56 
1249.27 
1213.84 
1175.34 
1250.01 
1227.57 
1197.94 
1258.24 
1232.04 
1238.73 
1189.8 
1179.54 
1232.46 
1201.32 
1184.08 
1238.68 
1205.94 
1272.85 
1229.94 
1175.67 
1240.45 
1231.64 
1229.8 
1277.03 
1224.59 
1213.62 
1186.75 
1231.35 
1197.13 
1185.07 
1259.82 
1221.85 
1224.55 
1211.94 
1246.48 
1251.26 
ITEM: TIMESTEP
2500
ITEM: NUMBER OF CELLS
100
ITEM: BOX BOUNDS ss rr pp
0 1
0 0.01
-0.5 0.5
ITEM: CELLS f_temp1[*] 
1190.1 
1269.59 
1244.22 
1247.79 
1207.94 
1198.34 
1263.75 
1228.33 
1231.44 
1211.77 
1245.23 
1231.52 
1211.01 
1214.66 
1290.69 
1201.58 
1246.23 
1164.83 
1239.63 
1186.85 
1172.63 
1191.23 
1224.66 
1207.74 
1195.87 
1239.51 
1270.8 
1196.09 
1288.67 
1199.84 
1239.31 
1247.99 
1217.04 
1201.23 
1269.26 
1241.81 
1232.18 
1245.88 
1252.41 
1243.56 
1226.64 
1257.27 
1231.55 
1259.48 
1195.55 
1259.3 
1232.74 
1206.88 
1201.15 
1214.31 
1216.71 
1195.98 
1164.41 
1267.71 
1263.8 
1235.92 
1231.93 
1226.14 
1178.76 
1258.9 
1226.1 
1222.7 
1268.97 
1246.22 
1202.31 
1234.17 
1275.96 
1230.91 
1221.13 
1218.44 
1205.24 
1268.09 
1269.32 
1227.92 
1220.13 
1242.97 
1233.92 
1281.61 
1239.07 
1221.71 
1196.46 
1167.78 
1243.2 
1236.1 
1225.61 
1204.79 
1186 
1249.28 
1241.63 
1280 
1236.66 
1205.47 
1220.13 
1269.96 
1206.93 
1178.18 
1221.4 
1289.35 
1214.82 
1222.16 
ITEM: TIMESTEP
2600
ITEM: NUMBER OF CELLS
100
ITEM: BOX BOUNDS ss rr pp
0 1
0 0.01
-0.5 0.5
ITEM: CELLS f_temp1[*] 
1228.93 
1268.57 
1154.46 
1157.87 
1240.64 
1198.12 
1214.58 
1192.45 
1212.57 
1234.67 
1184.87 
1271.79 
1193.01 
1181.33 
1233.15 
1258.43 
1207.37 
1286.11 
1199.04 
1239.45 
1269.18 
1246.82 
1191.25 
1189.29 
1188.63 
1231.49 
1239.82 
1190.02 
1256.16 
1261 
1235.07 
1243.45 
1185.61 
1206.31 
1197.47 
1246.22 
1246.52 
1252.86 
1187.56 
1169.76 
1240.38 
1181.99 
1228.56 
1325.28 
1223.05 
1215.42 
1200.57 
1265.11 
1266.25 
1265.46 
1221.48 
1214.35 
1191.74 
1193.53 
1226.77 
1254.53 
1192.75 
1234.8 
1298.24 
1238.96 
1257.78 
1194.87 
1200.25 
1261.52 
1242.74 
1201.54 
1266.43 
1164.78 
1217.94 
1182.29 
1213.5 
1222.85 
1240.86 
1245.52 
1221.43 
1216.47 
1205.76 
1258.06 
1227.25 
1179.46 
1218.03 
1191.98 
1233.26 
1205.59 
1223.89 
1234.87 
1256.41 
1160.26 
1223.54 
1230.42 
1231.19 
1235.02 
1226.49 
1214.26 
1218.62 
1191.08 
1195.25 
1252.93 
1186.29 
1214.7 
ITEM: TIMESTEP
2700
ITEM: NUMBER OF CELLS
100
ITEM: BOX BOUNDS ss rr pp
0 1
0 0.01
-0.5 0.5
ITEM: CELLS f_temp1[*] 
1233.02 
1193.35 
1282.96 
1285.71 
1168.49 
1283.62 
1221.19 
1185.08 
1234.37 
1239.09 
1177.38 
1250.48 
1210.31 
1234.57 
1251 
1202.5 
1207.14 
1205.66 
1174.18 
1253.69 
1214.9 
1228.85 
1235.58 
1222.86 
1238.89 
1246.61 
1209.77 
1230.73 
1219.69 
1213.48 
1217.04 
1216.97 
1217.82 
1254.1 
1235.26 
1218.42 
1265.31 
1221.26 
1219.73 
1309.1 
1220.46 
1204.87 
1209 
1271.65 
1217.01 
1184.79 
1303.11 
1179.15 
1223.68 
1233.8 
1178.37 
1185.78 
1166.99 
1201.81 
1188.5 
1224.44 
1210.97 
1267.32 
1247.94 
1240.46 
1169.43 
1170.97 
1218.16 
1279.39 
1203.02 
1200.48 
1182.5 
1247.14 
1245.82 
1241.93 
1239.67 
1191.17 
1249.32 
1182.19 
1168.81 
1248.73 
1211.48 
1181.19 
1242.09 
1249.17 
1219.24 
1191.17 
1283.5 
1236.91 
1249.45 
1261.49 
1245.72 
1285.38 
1306.41 
1231.26 
1254.49 
1249.79 
1221.17 
1235.71 
1354.44 
1254.25 
1212.65 
1215.6 
1211.08 
1248.71 
ITEM: TIMESTEP
2800
ITEM: NUMBER OF CELLS
100
ITEM: BOX BOUNDS ss rr pp
0 1
0 0.01
-0.5 0.5
ITEM: CELLS f_temp1[*] 
1187.58 
1230.02 
1262.24 
1251.75 
1198.75 
1219.38 
1265.11 
1267.98 
1162.9 
1144.18 
1182.39 
1214.02 
1220.36 
1211.45 
1148.03 
1261.27 
1242.77 
1182.13 
1255.71 
1235.63 
1202.4 
1243.61 
1244.4 
1246.31 
1237.06 
1168.31 
1243.61 
1175.62 
1187.72 
1273.82 
1268.38 
1244.25 
1218.09 
1233.88 
1251.89 
1141.46 
1243.83 
1242.29 
1174.08 
1133.18 
1158.99 
1208.71 
1210.47 
1235.77 
1219.36 
1260.67 
1243.6 
1260.01 
1242.98 
1214.98 
1203.17 
1192.12 
1244.51 
1246.64 
1240.76 
1241.37 
1186.43 
1251.01 
1215.33 
1197.39 
1229.9 
1209 
1238.79 
1236.42 
1228.71 
1199.49 
1242.56 
1220.73 
1211.51 
1228.94 
1206.95 
1218.37 
1191.7 
1192.78 
1213.72 
1206.53 
1173.09 
1225.74 
1177.2 
1257.66 
1261.95 
1216.09 
1227.07 
1203.81 
1204.01 
1265.22 
1248.62 
1229.2 
1208.33 
1212.12 
1204.33 
1222.96 
1208.99 
1287.53 
1244.17 
1240.52 
1179.84 
1248.86 
1325.14 
1174.51 
ITEM: TIMESTEP
2900
ITEM: NUMBER OF CELLS
100
ITEM: BOX BOUNDS ss rr pp
0 1
0 0.01
-0.5 0.5
ITEM: CELLS f_temp1[*] 
1287.88 
1253.26 
1265.7 
1242.11 
1179.11 
1257.98 
1232.04 
1194.21 
1243.01 
1229.58 
1197.78 
1222.55 
1200.18 
1198.94 
1219.54 
1234.72 
1239.12 
1222.14 
1221.51 
1195.22 
1225.58 
1193.02 
1204.2 
1220.5 
1213.93 
1242.94 
1180.29 
1244.5 
1178.17 
1285.62 
1240.87 
1264.15 
1192.69 
1218.6 
1221.1 
1199.85 
1210.16 
1215.56 
1233.81 
1190.81 
1219.56 
1236.27 
1209.03 
1180.06 
1226.25 
1226.93 
1199.83 
1196.97 
1237.29 
1263.88 
1270.45 
1302.71 
1196.05 
1177.97 
1227.49 
1212.28 
1210.26 
1127.19 
1273.29 
1238.34 
1202.5 
1205.87 
1204.32 
1196.12 
1221.18 
1246.2 
1211.21 
1283.14 
1241.85 
1197.42 
1250.74 
1242.9 
1226.94 
1204.4 
1261.4 
1187.69 
1208.27 
1213.2 
1205.91 
1154.67 
1273.49 
1217.09 
1220.38 
1203.48 
1218.3 
1195.08 
1273.97 
1284.76 
1268.15 
1236 
1203.37 
1179.66 
1203.96 
1219.87 
1183.46 
1219.15 
1203.28 
1159.33 
1225.53 
1249.73 
ITEM: TIMESTEP
3000
ITEM: NUMBER OF CELLS
100
ITEM: BOX BOUNDS ss rr pp
0 1
0 0.01
-0.5 0.5
ITEM: CELLS f_temp1[*] 
1236.2 
1216.09 
1220.41 
1199.94 
1252.98 
1225.72 
1224.5 
1248.72 
1186.68 
1175.58 
1228.17 
1259.25 
1187.33 
1217.95 
1245.34 
1212.3 
1211.07 
1227.82 
1243.42 
1282.14 
1156.27 
1235.54 
1236.43 
1254.58 
1237.74 
1240.05 
1202.58 
1093.65 
1259.86 
1236.04 
1188.26 
1225.38 
1208.04 
1237.79 
1242.07 
1286.84 
1278.06 
1216.25 
1184.65 
1265.79 