ITEM: TIMESTEP
0
ITEM: NUMBER OF CELLS
100
ITEM: BOX BOUNDS ss rr pp
-1 1
-0.1 0.1
-0.5 0.5
ITEM: CELLS f_temp1[*] 
0 
0 
0 
0 
0 
0 
0 
0 
0 
0 
0 
0 
0 
0 
0 
0 
0 
0 
0 
0 
0 
0 
0 
0 
0 
0 
0 
0 
0 
0 
0 
0 
0 
0 
0 
0 
0 
0 
0 
0 
0 
0 
0 
0 
0 
0 
0 
0 
0 
0 
0 
0 
0 
0 
0 
0 
0 
0 
0 
0 
0 
0 
0 
0 
0 
0 
0 
0 
0 
0 
0 
0 
0 
0 
0 
0 
0 
0 
0 
0 
0 
0 
0 
0 
0 
0 
0 
0 
0 
0 
0 
0 
0 
0 
0 
0 
0 
0 
0 
0 
ITEM: TIMESTEP
10
ITEM: NUMBER OF CELLS
100
ITEM: BOX BOUNDS ss rr pp
-1 1
-0.1 0.1
-0.5 0.5
ITEM: CELLS f_temp1[*] 
706.919 
227.975 
360.768 
113.326 
318.751 
785.617 
80.3011 
224.144 
103.572 
0 
358.566 
89.4024 
159.47 
321.627 
81.6396 
532.266 
108.999 
0 
134.69 
280.464 
149.98 
144.917 
0 
259.684 
87.1199 
65.0631 
112.943 
126.106 
173.546 
139.962 
176.365 
360.004 
263.084 
140.301 
73.2724 
220.833 
110.743 
385.734 
21.8995 
0 
99.2208 
296.778 
116.487 
209.951 
423.46 
105.118 
268.28 
713.737 
0 
872.964 
338.122 
112.86 
165.02 
208.83 
194.303 
181.596 
190.908 
139.91 
768.01 
0 
66.1196 
597.117 
196.162 
368.798 
112.276 
88.9133 
257.94 
108.19 
293.582 
33.6733 
280.185 
169.626 
118.423 
61.905 
446.592 
418.376 
85.9316 
129.336 
87.2048 
66.0432 
66.2059 
52.7036 
28.2376 
413.409 
0 
127.615 
145.406 
204.566 
523.111 
259.858 
542.087 
5.47453 
216.542 
115.645 
105.272 
70.5618 
442.274 
114.699 
47.6031 
212.665 
ITEM: TIMESTEP
20
ITEM: NUMBER OF CELLS
100
ITEM: BOX BOUNDS ss rr pp
-1 1
-0.1 0.1
-0.5 0.5
ITEM: CELLS f_temp1[*] 
52.1902 
147.238 
85.3322 
153.61 
66.6384 
461.738 
68.3718 
117.681 
231.157 
153.869 
151.77 
82.4658 
137.383 
188.502 
179.919 
65.1867 
254.915 
88.4447 
188.951 
143.869 
156.769 
362.932 
128.727 
198.299 
134.415 
69.9418 
132.136 
274.925 
391.99 
207.342 
73.7869 
469.943 
300.548 
72.6474 
381.055 
250.381 
195.846 
95.6833 
954.769 
164.371 
123.525 
273.881 
476.947 
510.477 
133.799 
168.461 
142.23 
85.0506 
553.334 
268.219 
0 
200.796 
132.428 
252.063 
196.009 
123.074 
148.337 
278.701 
157.994 
154.59 
718.03 
81.4381 
297.359 
246.163 
208.23 
109.621 
0 
35.7227 
179.748 
77.7722 
558.183 
535.309 
95.5984 
117.105 
50.8505 
112.151 
99.8931 
138.88 
198.85 
1114.79 
251.683 
53.1341 
263.671 
89.6705 
309.602 
321.738 
106.039 
65.8627 
14.5639 
313.563 
130.275 
281.991 
198.949 
429.692 
134.302 
76.8907 
204.613 
317.022 
108.16 
206.588 
ITEM: TIMESTEP
30
ITEM: NUMBER OF CELLS
100
ITEM: BOX BOUNDS ss rr pp
-1 1
-0.1 0.1
-0.5 0.5
ITEM: CELLS f_temp1[*] 
115.755 
121.702 
151.115 
538.617 
184.953 
279.983 
135.021 
150.121 
72.6558 
134.536 
148.46 
744.481 
119.598 
69.6713 
70.1042 
141.75 
162.258 
95.7112 
174.311 
50.3803 
103.431 
174.497 
223.014 
195.422 
392.044 
136.83 
1567.09 
113.379 
779.969 
283.315 
781.039 
177.271 
124.346 
83.1182 
307.911 
34.7522 
536.785 
345.571 
235.903 
156.325 
724.27 
171.925 
29.456 
281.995 
246.78 
265.857 
564.446 
22.1208 
82.1388 
152.95 
309.332 
242.495 
82.2809 
246.769 
192.768 
240.351 
127.559 
26.7543 
61.0994 
577.344 
57.4773 
268.699 
605.682 
92.8765 
0 
522.104 
219.421 
262.216 
132.41 
223.366 
100.956 
95.6475 
725.389 
133.672 
187.818 
202.831 
129.996 
57.6777 
455.527 
0 
0 
367.178 
549.739 
97.1037 
80.8795 
812.959 
174.459 
74.6888 
71.9299 
0 
47.4621 
100.742 
192.782 
70.2528 
113.164 
153.314 
1554.16 
66.6353 
49.645 
207.71 
ITEM: TIMESTEP
40
ITEM: NUMBER OF CELLS
100
ITEM: BOX BOUNDS ss rr pp
-1 1
-0.1 0.1
-0.5 0.5
ITEM: CELLS f_temp1[*] 
171.715 
50.3982 
220.196 
694.353 
491.6 
56.5544 
225.837 
63.3756 
9.74113 
63.6102 
358.882 
211.529 
109.395 
276.749 
80.1998 
49.3921 
60.2113 
381.949 
42.4111 
380.194 
685.781 
399.487 
52.9169 
436.882 
152.069 
94.7322 
259.232 
106.197 
186.513 
117.527 
468.939 
424.215 
130.107 
275.51 
0 
614.525 
646.227 
0.157612 
70.4943 
133.586 
80.0864 
190.327 
138.05 
152.26 
127.348 
92.6362 
212.906 
138.617 
222.075 
202.887 
447.377 
224.558 
233.433 
167.711 
132.847 
271.702 
192.315 
406.59 
250.015 
267.438 
151.371 
1055.54 
72.2406 
172.748 
544.002 
172.931 
36.7928 
282.772 
67.9085 
134.084 
272.277 
618.374 
101.658 
86.4447 
25.1807 
224.011 
96.7782 
81.0095 
261.597 
130.071 
34.1275 
351.233 
0 
117.603 
181.887 
159.476 
49.6374 
61.0532 
280.219 
269.114 
233.92 
471.18 
185.121 
240.437 
123.172 
102.328 
136.544 
102.948 
170.456 
17.2075 
ITEM: TIMESTEP
50
ITEM: NUMBER OF CELLS
100
ITEM: BOX BOUNDS ss rr pp
-1 1
-0.1 0.1
-0.5 0.5
ITEM: CELLS f_temp1[*] 
130.572 
127.372 
197.046 
200.878 
322.571 
168.009 
104.766 
182.754 
120.368 
178.405 
61.5121 
962.065 
224.239 
478.22 
723.996 
408.485 
0 
230.48 
394.547 
41.2511 
224.173 
179.827 
145.538 
178.289 
669.724 
10.978 
247.993 
315.832 
79.5462 
39.6587 
75.7161 
465.864 
66.8723 
98.3251 
156.211 
144.9 
539.386 
69.9467 
411.474 
139.554 
61.866 
15.1335 
96.6167 
91.6345 
342.277 
373.434 
102.035 
42.4335 
153.079 
283.252 
72.1484 
148.15 
54.2786 
318.266 
306.708 
446.702 
66.6519 
175.161 
181.168 
283.761 
59.5545 
201.506 
126.385 
151.459 
264.254 
64.9372 
50.7944 
75.0609 
242.714 
157.855 
146.092 
125.718 
61.8974 
49.9735 
199.533 
517.566 
37.513 
0 
471.122 
85.3695 
139.941 
117.649 
110.338 
0 
369.921 
404.622 
70.252 
503.206 
215.754 
51.8223 
120.613 
81.1316 
249.826 
0 
140.454 
325.403 
378.23 
149.152 
179.836 
0 
ITEM: TIMESTEP
60
ITEM: NUMBER OF CELLS
100
ITEM: BOX BOUNDS ss rr pp
-1 1
-0.1 0.1
-0.5 0.5
ITEM: CELLS f_temp1[*] 
99.5288 
218.583 
64.8216 
118.465 
75.46 
44.3049 
70.148 
1162.09 
641.21 
107.084 
71.1905 
382.942 
198.481 
258.413 
845.134 
259.187 
512.003 
77.2506 
0 
77.8889 
533.494 
173.501 
668.927 
596.155 
24.1473 
377.817 
323.43 
335.347 
301.95 
301.351 
198.105 
234.733 
583.902 
32.7964 
143.019 
211.372 
218.431 
174.137 
308.441 
320.34 
205.207 
250.492 
214.006 
260.075 
255.891 
330.879 
212.989 
548.785 
221.08 
636.231 
127.932 
0 
37.3705 
99.2231 
1894.68 
629.183 
512.673 
39.3651 
59.2534 
463.655 
496.581 
217.12 
96.5292 
196.515 
125.693 
249.742 
0 
109.891 
0 
565.27 
290.581 
71.3748 
119.611 
217.143 
95.7146 
594.773 
338.617 
107.161 
117.291 
180.799 
16.8094 
306.637 
164.566 
302.831 
155.827 
72.273 
198.899 
34.5033 
590.718 
60.6832 
13.5005 
112.679 
53.5004 
299.438 
107.072 
15.2807 
39.8591 
0 
56.8927 
102.374 
ITEM: TIMESTEP
70
ITEM: NUMBER OF CELLS
100
ITEM: BOX BOUNDS ss rr pp
-1 1
-0.1 0.1
-0.5 0.5
ITEM: CELLS f_temp1[*] 
24.6001 
110.157 
55.95 
68.055 
401.859 
130.678 
44.8797 
479.481 
394.803 
104.048 
120.691 
116.307 
495.71 
340.204 
86.2112 
139.751 
130.198 
0 
77.6755 
589.052 
117.099 
29.96 
89.9984 
82.1818 
111.517 
95.6428 
82.0318 
487.781 
212.408 
231.771 
266.621 
407.871 
100.092 
49.1116 
162.946 
178.91 
323.757 
216.07 
86.2389 
170.315 
288.929 
204.386 
318.401 
132.375 
96.1841 
100.225 
182.774 
0 
61.1311 
158.975 
164.176 
310.653 
84.0201 
94.8902 
311.814 
172.392 
114.392 
239.885 
175.326 
218.699 
0 
48.3761 
50.6979 
194.132 
675.58 
51.4765 
256.68 
71.3483 
0 
602.944 
435.298 
295.662 
103.402 
159.456 
375.71 
401.73 
0 
180.732 
34.1546 
0 
180.454 
0 
63.6727 
30.181 
145.078 
85.6644 
142.943 
282.571 
14.1416 
103.348 
637.215 
349.789 
172.432 
352.213 
49.9881 
65.9215 
58.8854 
105.165 
0 
547.362 
ITEM: TIMESTEP
80
ITEM: NUMBER OF CELLS
100
ITEM: BOX BOUNDS ss rr pp
-1 1
-0.1 0.1
-0.5 0.5
ITEM: CELLS f_temp1[*] 
72.0824 
107.868 
624.865 
226.324 
238.691 
102.148 
300.347 
556.413 
236.14 
474.93 
115.988 
49.3847 
254.75 
286.037 
721.546 
72.671 
155.249 
276.808 
0 
320.131 
157.213 
118.435 
137.523 
236.923 
87.6577 
51.0199 
453 
47.9672 
522.972 
125.219 
190.36 
80.8191 
329.209 
75.7014 
200.948 
68.536 
35.2829 
0 
371.251 
342.185 
42.1447 
634.054 
64.9687 
225.799 
46.2688 
262.241 
62.8162 
508.864 
681.85 
222.352 
395.103 
390.96 
291.052 
5.97946 
478.443 
836.831 
139.158 
99.2063 
225.646 
0 
209.282 
256.258 
169.837 
440.405 
277.764 
250.025 
57.964 
334.625 
191.334 
242.966 
241.36 
59.6727 
104.492 
134.316 
82.7966 
166.019 
97.6989 
75.8645 
287.471 
213.276 
0 
320.195 
400.869 
111.471 
638.189 
226.495 
427.852 
330.022 
424.073 
56.5822 
61.5339 
370.736 
115.465 
77.6786 
211.626 
253.671 
180.288 
80.1952 
52.6998 
116.66 
ITEM: TIMESTEP
90
ITEM: NUMBER OF CELLS
100
ITEM: BOX BOUNDS ss rr pp
-1 1
-0.1 0.1
-0.5 0.5
ITEM: CELLS f_temp1[*] 
291.064 
435.967 
47.496 
299.041 
451.36 
123.895 
100.745 
277.641 
222.889 
79.2179 
109.264 
54.9636 
413.263 
198.791 
106.998 
92.5926 
109.098 
0 
81.8102 
70.6282 
188.032 
0 
80.9917 
528.61 
86.8661 
581.483 
57.838 
488.382 
138.696 
0 
244.206 
92.7869 
88.3988 
223.312 
338.221 
49.4867 
232.272 
244.823 
210.234 
135.841 
78.9035 
446.668 
462.316 
1052.2 
520.689 
0 
176.57 
667.9 
179.711 
281.29 
430.307 
85.6328 
151.782 
384.943 
214.948 
82.4232 
151.799 
128.45 
108.656 
982.562 
189.12 
124.376 
423.981 
202.586 
248.802 
270.681 
359.319 
476.012 
0 
111.696 
88.9497 
356.186 
97.2942 
36.4518 
330.342 
285.698 
168.956 
78.4537 
321.036 
278.336 
416.828 
526.128 
249.214 
97.8197 
79.8268 
110.569 
190.245 
0 
20.8676 
136.874 
153.618 
181.598 
719.702 
64.1574 
131.238 
1132.33 
125.433 
821.773 
217.812 
309.106 
ITEM: TIMESTEP
100
ITEM: NUMBER OF CELLS
100
ITEM: BOX BOUNDS ss rr pp
-1 1
-0.1 0.1
-0.5 0.5
ITEM: CELLS f_temp1[*] 
147.364 
142.729 
450.979 
48.3222 
107.058 
0 
292.046 
207.382 
115.6 
225.043 
114.985 
201.686 
152.945 
128.471 
132.593 
13.2607 
468.32 
347.387 
178.036 
34.6888 
333.568 
90.4 
396.172 
166.9 
31.4188 
632.248 
164.992 
80.024 
85.1529 
233.815 
1200.55 
384.488 
473.344 
148.784 
176.67 
399.767 
373.741 
291.775 
189.551 
177.73 
297.306 
68.4703 
292.279 
161.601 
282.316 
117.267 
190.863 
591.345 
350.513 
529.939 
415.301 
388.153 
364.832 
25.9963 
1174.08 
513.988 
352.325 
845.565 
521.587 
47.0945 
155.875 
111.119 
430.562 
157.539 
89.4198 
389.626 
189.311 
109.793 
32.4045 
24.4722 
117.2 
137.044 
255.146 
250.116 
270.052 
119.973 
266.569 
600.864 
101.376 
99.8101 
14.3471 
147.191 
112.334 
93.4137 
229.408 
65.3583 
288.915 
197.246 
72.0431 
25.9396 
698.606 
124.541 
198.545 
247.094 
86.0679 
292.02 
215.898 
111.771 
138.151 
678.061 
ITEM: TIMESTEP
110
ITEM: NUMBER OF CELLS
100
ITEM: BOX BOUNDS ss rr pp
-1 1
-0.1 0.1
-0.5 0.5
ITEM: CELLS f_temp1[*] 
262.23 
201.757 
211.985 
113.902 
209.543 
295.486 
102.819 
105.891 
101.555 
460.751 
294.918 
81.3963 
78.3904 
555.632 
101.664 
36.6806 
366.508 
177.338 
81.8367 
430.269 
0 
79.091 
144.393 
224.104 
34.1414 
122.576 
61.7512 
491.598 
98.8442 
814.907 
480.834 
193.908 
180.785 
266.219 
49.5189 
89.3695 
120.474 
123.63 
202.35 
175.6 
60.4613 
21.7883 
250.54 
103.755 
88.8112 
376.464 
96.2841 
81.226 
235.321 
106.125 
81.8213 
46.3709 
171.628 
121.72 
262.759 
132.945 
541.914 
103.001 
188.796 
166.681 
0 
118.665 
143.733 
206.026 
76.7739 
223.38 
162.443 
1314.15 
83.1692 
58.9727 
146.84 
7.63332 
112.668 
168.116 
117.748 
59.4236 
255.003 
492.952 
101.041 
251.181 
294.11 
0 
122.204 
0 
48.2836 
65.5831 
279.422 
179.799 
151.118 
328.076 
354.079 
182.443 
534.717 
99.7505 
362.681 
176.528 
306.632 
118.527 
83.9373 
53.2891 
ITEM: TIMESTEP
120
ITEM: NUMBER OF CELLS
100
ITEM: BOX BOUNDS ss rr pp
-1 1
-0.1 0.1
-0.5 0.5
ITEM: CELLS f_temp1[*] 
144.68 
0 
9.55066 
0 
135.869 
166.157 
143.612 
216.689 
121.31 
0 
28.9958 
256.766 
113.373 
95.9514 
838.533 
189.157 
349.771 
166.439 
176.169 
21.3373 
150.265 
43.3457 
364.863 
59.8158 
101.772 
339.28 
67.0228 
83.0051 
252.713 
273.7 
21.3772 
168.693 
196.729 
557.704 
172.722 
187.915 
148.076 
57.7143 
72.9374 
50.4765 
82.1725 
8.48203 
14.0966 
51.1314 
120.746 
177.84 
114.099 
0 
191.522 
115.312 
30.8012 
66.073 
146.183 
140.691 
1693.47 
0 
96.5807 
111.227 
97.3493 
256.242 
127.072 
115.518 
455.578 
212.457 
320.302 
94.7198 
176.058 
499.303 
161.77 
186.118 
184.444 
405.847 
477.534 
233.755 
302.685 
313.898 
134.538 
130.824 
156.322 
93.9018 
148.544 
33.733 
255.37 
198.538 
82.9547 
116.098 
376.498 
195.013 
113.051 
278.545 
198.146 
61.3753 
255.831 
295.14 
58.4926 
214.6 
242.77 
451.284 
228.136 
317.058 
ITEM: TIMESTEP
130
ITEM: NUMBER OF CELLS
100
ITEM: BOX BOUNDS ss rr pp
-1 1
-0.1 0.1
-0.5 0.5
ITEM: CELLS f_temp1[*] 
27.2314 
155.541 
217.21 
19.612 
502.369 
91.4218 
189.454 
275.741 
89.3655 
210.159 
99.1496 
404.795 
64.634 
346.212 
0 
93.5782 
212.997 
102.742 
527.24 
361.745 
754.952 
150.899 
106.912 
87.6114 
255.368 
81.6043 
222.844 
372.228 
338.17 
144.613 
324.542 
222.737 
328.24 
136.394 
36.3388 
88.6821 
0 
271.732 
0 
9.02787 
207.787 
254.33 
267.275 
310.513 
32.7994 
58.5019 
350.522 
125.651 
322.293 
48.1058 
71.2659 
50.4039 
73.5774 
354.399 
158.59 
66.8566 
76.3106 
106.542 
226.083 
0 
282.31 
167.21 
31.7955 
152.656 
353.279 
95.9503 
83.5147 
83.1881 
236.159 
135.387 
214.426 
333.714 
0 
371.657 
64.6781 
76.5164 
74.2955 
247.219 
415.197 
176.728 
38.861 
95.3588 
103.362 
124.003 
188.232 
184.13 
126.472 
348.358 
124.424 
134.444 
197.017 
164.18 
149.725 
92.2332 
51.027 
510.794 
38.648 
18.5192 
251.501 
126.845 
ITEM: TIMESTEP
140
ITEM: NUMBER OF CELLS
100
ITEM: BOX BOUNDS ss rr pp
-1 1
-0.1 0.1
-0.5 0.5
ITEM: CELLS f_temp1[*] 
58.1517 
212.539 
131.353 
59.4835 
61.7251 
72.7428 
382.938 
87.7125 
129.229 
264.467 
433.356 
337.378 
408.9 
195.586 
11.9759 
207.799 
119.281 
163.489 
178.826 
69.3882 
134.735 
122.128 
157.605 
125.815 
148.631 
350.005 
302.949 
46.6679 
242.74 
66.8816 
246.289 
191.512 
139.24 
245.262 
182.65 
96.0961 
196.023 
111.2 
183.845 
301.957 
131.097 
312.628 
1144.74 
396.921 
570.071 
95.1186 
145.945 
94.0617 
136.199 
167.566 
170.24 
193.8 
0 
0 
1348.19 
1066.62 
300.708 
238.98 
181.599 
211.029 
59.6008 
268.734 
392.92 
173.089 
346.103 
215.359 
48.0665 
117.097 
148.599 
171.622 
0 
349.518 
276.85 
221.131 
161.125 
119.864 
530.292 
215.038 
62.5444 
79.2324 
254.232 
402.988 
131.622 
314.161 
168.537 
0 
214.405 
83.4619 
102.014 
323.725 
160.24 
182.311 
306.676 
227.006 
486.73 
204.215 
178.209 
220.453 
187.499 
211.506 
ITEM: TIMESTEP
150
ITEM: NUMBER OF CELLS
100
ITEM: BOX BOUNDS ss rr pp
-1 1
-0.1 0.1
-0.5 0.5
ITEM: CELLS f_temp1[*] 
63.5461 
136.861 
216.973 
74.2951 
0 
288.08 
49.798 
202.823 
111.515 
71.5728 
253.714 
410.298 
168.824 
145.364 
308.439 
122.806 
93.8829 
586.199 
628.251 
88.9175 
336.406 
0 
192.35 
58.7587 
237.183 
0 
149.881 
154.833 
52.9216 
128.748 
398.607 
413.732 
137.111 
139.71 
164.542 
154.457 
233.697 
44.041 
136.455 
107.524 
0 
118.662 
136.995 
97.33 
221.586 
0 
1114.08 
172.49 
230.864 
103.01 
229.343 
109.126 
100.539 
120.083 
52.2423 
113.017 
248.748 
264.912 
292.779 
341.8 
337.678 
110.583 
123.402 
128.681 
0 
206.487 
354.767 
53.0258 
25.4527 
0 
342.985 
114.541 
37.9446 
297.884 
399.15 
156.081 
42.1611 
304.439 
230.152 
228.252 
231.389 
168.985 
205.203 
166.591 
218.397 
171.322 
368.287 
0 
100.242 
658.439 
25.3395 
72.1176 
0 
222.237 
124.166 
82.1441 
152.82 
317.389 
259.05 
86.3923 
ITEM: TIMESTEP
160
ITEM: NUMBER OF CELLS
100
ITEM: BOX BOUNDS ss rr pp
-1 1
-0.1 0.1
-0.5 0.5
ITEM: CELLS f_temp1[*] 
268.786 
332 
607.786 
116.967 
163.407 
362.945 
79.6877 
155.08 
433.824 
126.755 
0 
280.074 
105.348 
143.241 
164.618 
236.558 
109.366 
437.091 
116.695 
525.213 
131.781 
236.703 
70.0557 
428.892 
223.466 
58.2658 
238.772 
0 
73.3166 
0 
240.778 
70.7257 
146.181 
51.4416 
61.6459 
187.292 
232.574 
180.264 
448.083 
126.427 
321.034 
0 
334.88 
322.946 
478.386 
206.605 
85.1656 
136.214 
271.73 
236.622 
93.4004 
0 
182.402 
365.674 
419.08 
286.668 
144.75 
128.293 
62.4471 
133.611 
151.553 
153.413 
695.927 
0 
145.047 
23.6646 
69.6289 
268.637 
394.747 
244.478 
204.138 
82.583 
87.6411 
381.581 
299.722 
165.838 
205.857 
239.353 
414.088 
216.291 
98.5362 
153.541 
51.7855 
87.8486 
11.5076 
259.405 
0 
107.199 
79.2855 
1372.97 
101.928 
353.174 
14.8643 
222.956 
600.274 
231.303 
33.5725 
412.186 
165.11 
0 
ITEM: TIMESTEP
170
ITEM: NUMBER OF CELLS
100
ITEM: BOX BOUNDS ss rr pp
-1 1
-0.1 0.1
-0.5 0.5
ITEM: CELLS f_temp1[*] 
477.255 
310.869 
164.453 
165.275 
80.027 
85.7839 
759.409 
772.302 
224.12 
270.241 
0 
26.1136 
274.343 
116.429 
298.282 
282.661 
209.001 
85.0939 
262.146 
326.128 
179.465 
405.156 
0 
208.262 
407.499 
307.059 
156.356 
349.535 
131.704 
0 
339.509 
0 
71.5995 
135.371 
236.915 
128.757 
125.677 
394.083 
359.945 
300.713 
63.9387 
186.611 
82.7633 
198.333 
278.283 
35.6757 
193.308 
218.106 
226.696 
7.72566 
31.6573 
263.323 
296.308 
114.116 
197.962 
1087.93 
70.7152 
396.869 
131.845 
136.342 
771.416 
314.439 
0 
216.653 
377.203 
116.126 
82.929 
203.018 
278.976 
412.136 
210.612 
0 
72.5592 
236.338 
104.247 
377.086 
180.412 
157.194 
63.6593 
112.976 
0 
411.119 
78.1814 
305.569 
171.982 
127.647 
269.847 
209.941 
224.369 
215.948 
69.5239 
204.107 
247.623 
322.612 
183.567 
98.2764 
136.169 
230.408 
55.0462 
64.0187 
ITEM: TIMESTEP
180
ITEM: NUMBER OF CELLS
100
ITEM: BOX BOUNDS ss rr pp
-1 1
-0.1 0.1
-0.5 0.5
ITEM: CELLS f_temp1[*] 
361.775 
141.967 
269.195 
201.364 
98.4704 
150.376 
241.424 
97.854 
190.552 
17.2259 
144.055 
0 
386.551 
158.373 
246.508 
271.996 
125.571 
340.286 
605.959 
565.86 
299.253 
203.471 
189.483 
286.996 
564.595 
85.7551 
288.83 
27.6209 
49.0061 
140.452 
136.202 
0 
179.182 
151.546 
202.986 
606.872 
191.351 
97.6451 
199.823 
136.284 
73.5145 
274.917 
511.712 
142.106 
134.477 
138.776 
377.746 
224.356 
598.948 
385.001 
184.017 
299.117 
137.859 
175.608 
95.9243 
113.963 
283.244 
226.158 
283.223 
163.904 
200.882 
47.5245 
278.429 
150.729 
0 
106.762 
77.6322 
109.334 
0 
775.032 
129.6 
68.2754 
343.732 
132.339 
36.0486 
42.3362 
129.066 
1029.12 
232.192 
134.819 
123.355 
235.103 
347.746 
343.011 
217.997 
183.061 
346.518 
72.9886 
188.734 
76.2908 
359.93 
118.884 
434.785 
272.879 
457.164 
56.1378 
252.3 
143.467 
0 
258.176 
ITEM: TIMESTEP
190
ITEM: NUMBER OF CELLS
100
ITEM: BOX BOUNDS ss rr pp
-1 1
-0.1 0.1
-0.5 0.5
ITEM: CELLS f_temp1[*] 
145.104 
205.608 
59.8644 
339.46 
106.331 
424.823 
83.4084 
197.697 
304.341 
87.0888 
191.804 
102.737 
381.477 
177.402 
221.03 
157.358 
347.759 
147.604 
119.613 
396.85 
150.606 
193.725 
282.203 
0 
0 
180.143 
180.8 
201.622 
72.0891 
70.6519 
108.321 
189.64 
451.463 
131.377 
216.557 
235.346 
95.2024 
1569.43 
97.3897 
17.9066 
105.174 
296.75 
0 
122.049 
406.994 
246.538 
362.387 
386.654 
313.578 
508.897 
1045.09 
170.627 
242.205 
221.265 
88.8493 
0 
392.036 
116.404 
0 
169.105 
105.393 
597.903 
155.13 
101.382 
0 
33.8156 
168.931 
413.843 
76.1015 
784.152 
58.394 
378.396 
181.363 
153.078 
87.0882 
147.439 
126.84 
149.545 
281.651 
219.196 
263.152 
95.1185 
318.119 
699.885 
121.44 
184.077 
91.2206 
181.291 
68.1091 
144.309 
156.581 
60.879 
203.745 
160.501 
198.664 
50.9068 
181.731 
334.29 
389.088 
201.825 
ITEM: TIMESTEP
200
ITEM: NUMBER OF CELLS
100
ITEM: BOX BOUNDS ss rr pp
-1 1
-0.1 0.1
-0.5 0.5
ITEM: CELLS f_temp1[*] 
110.884 
247.322 
80.9765 
167.269 
30.9707 
82.4937 
57.9233 
150.142 
486.305 
100.573 
283.878 
355.399 
222.061 
55.9018 
56.3045 
232.214 
110.033 
308.252 
91.742 
137.518 
65.7871 
70.8153 
220.377 
113.601 
0 
284.691 
0 
161.39 
0 
397.156 
99.2952 
36.8699 
1028.86 
139.851 
197.794 
16.1327 
405.735 
176.147 
56.3168 
36.8764 
61.4466 
0 
79.5919 
349.962 
33.9834 
88.2629 
163.447 
109.782 
271.474 
886.233 
760.534 
47.7548 
39.9204 
101.155 
18.8526 
667.672 
93.8251 
431.283 
143.529 
269.039 
86.6623 
35.0761 
616.369 
462.262 
122.576 
287.06 
125.005 
40.9876 
378.984 
172.247 
359.326 
288.279 
114.181 
76.788 
40.0456 
132.392 
0 
781.2 
380.057 
371.703 
212.047 
391.403 
256.98 
380.988 
35.0718 
160.153 
237.948 
142.339 
486.932 
256.447 
192.199 
451.104 
136.86 
150.938 
103.632 
658.675 
108.01 
251.202 
0 
320.361 
