ITEM: TIMESTEP
0
ITEM: NUMBER OF CELLS
100
ITEM: BOX BOUNDS ss rr pp
0 1
0 0.01
-0.5 0.5
ITEM: CELLS f_vel[1] f_vel[2] f_vel[3] 
0 0 0 
0 0 0 
0 0 0 
0 0 0 
0 0 0 
0 0 0 
0 0 0 
0 0 0 
0 0 0 
0 0 0 
0 0 0 
0 0 0 
0 0 0 
0 0 0 
0 0 0 
0 0 0 
0 0 0 
0 0 0 
0 0 0 
0 0 0 
0 0 0 
0 0 0 
0 0 0 
0 0 0 
0 0 0 
0 0 0 
0 0 0 
0 0 0 
0 0 0 
0 0 0 
0 0 0 
0 0 0 
0 0 0 
0 0 0 
0 0 0 
0 0 0 
0 0 0 
0 0 0 
0 0 0 
0 0 0 
0 0 0 
0 0 0 
0 0 0 
0 0 0 
0 0 0 
0 0 0 
0 0 0 
0 0 0 
0 0 0 
0 0 0 
0 0 0 
0 0 0 
0 0 0 
0 0 0 
0 0 0 
0 0 0 
0 0 0 
0 0 0 
0 0 0 
0 0 0 
0 0 0 
0 0 0 
0 0 0 
0 0 0 
0 0 0 
0 0 0 
0 0 0 
0 0 0 
0 0 0 
0 0 0 
0 0 0 
0 0 0 
0 0 0 
0 0 0 
0 0 0 
0 0 0 
0 0 0 
0 0 0 
0 0 0 
0 0 0 
0 0 0 
0 0 0 
0 0 0 
0 0 0 
0 0 0 
0 0 0 
0 0 0 
0 0 0 
0 0 0 
0 0 0 
0 0 0 
0 0 0 
0 0 0 
0 0 0 
0 0 0 
0 0 0 
0 0 0 
0 0 0 
0 0 0 
0 0 0 
ITEM: TIMESTEP
100
ITEM: NUMBER OF CELLS
100
ITEM: BOX BOUNDS ss rr pp
0 1
0 0.01
-0.5 0.5
ITEM: CELLS f_vel[1] f_vel[2] f_vel[3] 
5.81045 -7.77782 22.1485 
8.56607 -26.2795 12.4166 
6.54305 -19.7637 -26.5031 
0.419494 8.85658 -0.252195 
19.2039 9.95275 2.46138 
6.83301 -19.7429 -16.0199 
8.18749 3.08724 43.9898 
18.6673 -0.903619 -22.6988 
-31.5502 -10.6536 9.43695 
-7.28758 -5.07503 30.3598 
-4.09788 -23.0196 25.5872 
37.6819 -7.46869 -1.01652 
1.52178 11.521 -7.69451 
16.14 -17.5342 5.53926 
20.1906 -6.46835 -1.45956 
13.1673 -0.308873 -14.9804 
-11.7328 -14.8469 13.352 
1.50789 -12.1164 -22.4563 
21.9963 4.24164 -29.157 
-2.26879 7.04389 -16.5691 
33.6044 -8.09209 28.7959 
-14.1484 -4.62939 -6.84405 
40.9437 -1.11489 6.12433 
25.0858 -30.2564 45.0624 
-0.426954 -3.70554 -13.7847 
20.2626 -12.2004 13.6927 
38.5334 -16.3406 14.4191 
14.4996 20.3691 5.34814 
-34.0854 -3.05874 28.3209 
-0.358937 16.7323 -3.22589 
12.6882 10.9446 3.28522 
-6.2762 16.8625 -1.86018 
-21.5936 14.1349 -5.99784 
27.8689 -4.37066 4.28968 
-2.9446 -19.9008 -23.6251 
-1.65879 8.51614 7.68311 
1.14271 -1.14242 5.61859 
-28.2839 10.4907 7.5926 
-1.55524 23.0105 -7.34997 
5.21739 2.05884 -9.73241 
16.1127 -11.0853 8.178 
-19.1101 -1.56956 -17.5338 
4.00905 -20.1944 18.1078 
-2.12099 -16.7968 20.56 
-1.72828 -28.265 39.7429 
-17.1887 36.8342 15.9355 
-4.29531 5.03564 13.4197 
23.9801 -38.1714 -13.1275 
5.48501 14.2856 -6.63128 
22.8423 -11.9754 -23.3407 
-0.682605 -3.84546 2.39373 
6.44697 -7.79109 2.08032 
7.1317 13.9014 -17.8508 
-6.41569 -0.671899 5.68705 
-17.5011 29.9505 2.35731 
4.22172 26.5102 22.1168 
-11.0348 -6.94949 14.8019 
8.22518 7.21424 -6.24588 
-7.73064 6.97935 18.2904 
-25.9557 -5.56788 7.3432 
-2.53242 -9.3564 11.4356 
19.1667 1.01811 -27.987 
13.206 -43.4559 -3.42159 
12.9718 18.6306 27.9377 
13.7054 7.67211 15.33 
7.23766 -15.4944 -0.886091 
-11.2511 -5.58088 -24.1349 
2.12723 -11.5424 -12.7657 
-24.7965 -2.34671 -2.18289 
4.57635 -16.1179 9.50033 
-13.0741 7.57777 -15.0411 
-5.21888 0.387572 10.7425 
-13.8362 40.286 9.91983 
-13.2535 8.96253 -0.868086 
6.06459 -6.02921 -21.1029 
24.2558 17.851 -6.74461 
0.561031 18.102 3.20122 
-2.86831 1.8211 -5.84926 
-8.8086 43.5116 11.3077 
-32.6866 7.78251 -20.2774 
31.7258 13.6395 -22.6279 
3.00321 -2.60084 -16.9677 
-13.5584 21.6931 37.2873 
21.3569 4.77375 12.1626 
-18.6037 0.823559 -7.32916 
1.07001 -29.7099 35.5202 
-10.8325 -23.1948 20.705 
-0.478665 3.11652 6.74143 
3.63698 1.61665 -13.6437 
5.34853 -13.112 20.0191 
-4.63815 -8.34644 24.6717 
-10.7628 17.228 21.9191 
16.631 34.5775 -5.94569 
-4.17108 -1.02072 -2.11412 
-28.398 7.4349 2.41117 
-4.31135 7.79878 -7.5126 
3.0398 -10.8282 13.6467 
0.163295 25.3391 8.70986 
-6.63836 -11.8804 -24.541 
9.66113 15.148 2.98239 
ITEM: TIMESTEP
200
ITEM: NUMBER OF CELLS
100
ITEM: BOX BOUNDS ss rr pp
0 1
0 0.01
-0.5 0.5
ITEM: CELLS f_vel[1] f_vel[2] f_vel[3] 
-24.2158 17.1477 16.9112 
-3.29556 14.8973 -16.1099 
-19.3397 21.2793 16.1402 
38.9094 -24.0239 12.4176 
19.3647 9.51876 0.832531 
-15.2492 18.1787 -4.53996 
-30.0022 -6.49288 19.2386 
-4.49623 -17.4978 -24.5577 
20.6951 -19.9078 -6.75238 
-10.9911 6.31013 5.11506 
-24.0213 8.8579 -43.4297 
-12.136 -10.6454 -16.7687 
-16.8286 26.2097 -9.00061 
0.137092 21.498 -16.0112 
-0.474023 1.44433 23.6842 
-8.60981 -38.6277 12.331 
21.3501 12.6059 -20.8751 
12.8728 -18.3261 -11.0185 
2.74893 -18.3922 -17.5156 
-38.2914 3.88616 3.48076 
-31.5096 -1.50995 -4.43356 
-2.76283 4.31601 -4.46998 
0.558039 5.56184 -17.5181 
1.78766 -14.3597 5.26707 
12.8406 4.73937 15.8569 
-17.0945 -20.3172 -10.4663 
14.037 7.9741 -25.9717 
17.3763 20.5386 15.8088 
-20.8415 23.2382 2.7528 
-17.9745 -4.2145 10.3053 
1.46715 0.560731 -7.49909 
30.1614 -6.6571 4.32797 
8.4208 9.46744 6.07579 
10.3479 5.93124 -1.35406 
-34.5291 -5.33896 4.82928 
14.1314 20.2038 -17.9444 
-5.3084 -3.03097 -30.7576 
29.771 1.20555 -32.9015 
-5.40154 -1.43005 26.0318 
26.8464 21.9718 8.82674 
15.7856 -3.22611 18.6322 
-25.6448 9.94047 18.107 
8.93763 3.64625 4.84522 
10.7635 33.1379 -10.7281 
-19.7113 -5.6121 1.97697 
-3.272 -2.93897 -8.70493 
8.19447 -8.23717 -14.3401 
20.4101 -40.2495 -13.6965 
-6.49632 16.2211 -15.1541 
6.24778 -29.8233 13.4029 
10.4407 27.842 -12.0619 
21.3128 -0.869731 19.3328 
-11.6904 7.94719 11.9615 
28.5848 -17.4817 43.3031 
-6.05675 11.9397 18.3731 
0.109177 -1.36982 3.89578 
-0.467411 21.4084 13.3078 
-38.2726 -10.4542 -27.4998 
-6.14064 -3.5689 22.617 
-24.8405 -4.48189 20.6486 
-20.612 0.861237 -9.32873 
-21.54 -26.9828 9.27734 
6.23974 38.9443 -21.6332 
16.429 17.2608 -12.0912 
3.07495 9.7238 14.466 
13.4091 1.25295 -8.16713 
-15.0509 -4.77547 12.6896 
-24.2428 1.00789 8.30155 
16.3406 -28.5186 -18.8764 
-21.3364 -34.9739 36.5821 
16.7039 -12.7435 10.1159 
4.14085 -6.07786 -8.98889 
23.9522 18.0075 -11.9129 
-28.6339 1.35605 -19.0342 
0.670281 24.0381 32.5609 
4.47026 -19.3566 17.9449 
14.2963 -24.5193 4.86416 
4.41846 -13.0613 -16.2081 
5.49787 16.919 13.848 
-4.62499 1.72045 -1.76439 
-17.2085 55.9725 -15.3323 
16.3385 -6.25836 38.3754 
-16.7572 -1.21737 -8.10875 
29.9796 -6.31248 31.9405 
-4.78019 -3.5775 -15.7752 
-21.4032 -11.1998 -24.0188 
-16.4741 -19.1736 16.3411 
30.2313 25.3216 7.35563 
22.3236 -1.01926 9.5936 
-20.7878 18.2016 5.59824 
-32.7564 17.6746 31.7509 
0.758097 13.6444 4.85453 
2.9363 -24.6874 9.72754 
18.7277 1.45794 5.32063 
17.459 -25.3235 -38.0999 
-0.512406 -17.1518 3.10309 
9.43591 -13.3078 -14.2693 
-12.9718 8.88257 -2.64852 
-17.1533 6.87597 8.40806 
-1.93321 10.3275 4.66436 
ITEM: TIMESTEP
300
ITEM: NUMBER OF CELLS
100
ITEM: BOX BOUNDS ss rr pp
0 1
0 0.01
-0.5 0.5
ITEM: CELLS f_vel[1] f_vel[2] f_vel[3] 
23.4044 9.94223 15.0358 
-28.5082 -13.47 16.6308 
18.8236 30.7539 -43.8242 
-16.8562 -10.9422 12.4177 
-11.3285 3.87179 13.4107 
-15.6143 23.8328 -0.0857176 
9.07727 -20.4341 17.1908 
3.66107 3.48295 25.4446 
16.5806 -7.09664 3.42203 
-14.4018 -11.167 30.5673 
-12.065 3.22307 -19.4159 
6.42866 30.9153 17.9923 
2.76744 -48.3809 4.12107 
-4.74594 6.18212 -12.0505 
-31.3142 -0.946469 12.992 
-0.0534813 -32.9434 -3.53562 
27.4976 10.7594 1.46483 
15.4781 -25.4682 -0.307165 
11.1393 -27.1035 -10.3941 
6.80566 -13.7545 15.8073 
11.7754 -42.3145 11.5883 
-21.6393 -2.22444 -0.73586 
-7.41713 16.8969 -2.39319 
48.1259 42.6349 -5.93114 
-5.43909 7.89126 -2.25796 
-20.2234 -3.10664 9.1698 
6.60435 -3.82645 -3.73904 
-9.73919 -1.8579 -11.2905 
19.3966 24.4174 -4.43721 
8.29074 -9.25009 0.891122 
-24.8141 12.4679 -4.39858 
8.73265 14.6671 7.59609 
-12.6811 5.88219 25.5194 
-16.0359 -20.557 11.9189 
-2.59293 0.235567 13.6415 
-5.3557 -6.3046 2.96297 
-7.75588 37.2514 -15.4156 
8.86034 17.9579 8.57401 
7.8556 12.7305 -0.911207 
3.12906 -5.01896 -2.69116 
-1.95813 5.60768 -19.1936 
-11.6982 -22.1171 12.5487 
5.09591 28.1749 20.4905 
-19.7025 -28.0897 -15.3055 
11.6422 -2.21041 26.0936 
-15.0277 -11.3074 14.9103 
4.96267 3.08141 -14.9923 
-1.66716 -17.1193 24.4652 
-10.4932 2.92675 4.07658 
19.9342 17.5305 25.8058 
-46.219 14.7183 9.14927 
-1.45888 -26.0027 -0.849883 
-2.91075 -7.21689 -10.8125 
-1.1043 23.4625 4.0618 
6.78879 2.44763 -26.1999 
-9.25905 -8.66281 1.67748 
-13.4818 -1.92034 -2.02664 
3.7586 -11.0855 5.6521 
10.0053 -15.2361 7.89969 
13.9697 15.2074 2.74065 
-13.8848 11.7057 -5.51971 
-22.1901 10.2188 22.1565 
-14.5671 -10.1454 -15.6243 
7.60351 -3.6717 24.0891 
4.70913 -25.481 16.809 
4.50838 10.1468 -1.51059 
15.6398 9.22459 2.51962 
1.83687 7.89167 10.2599 
-5.72241 6.63458 48.9925 
-32.6419 17.6125 -15.0981 
-5.54369 11.9381 17.0402 
-46.1304 -17.1733 23.7366 
-3.8974 -12.2082 0.33152 
3.11093 8.17374 -4.32224 
-5.24787 3.45241 -4.50331 
-12.4746 10.2128 9.88572 
-22.0684 14.6098 9.03609 
20.6905 2.11374 1.39646 
-10.3812 10.6684 -7.89195 
-19.1868 -37.2696 9.99472 
-3.15441 1.40721 8.66245 
-6.8118 26.1503 -13.1751 
24.2469 6.76247 22.3074 
-23.7207 -28.358 58.6918 
4.57567 3.35536 5.62926 
9.69815 16.788 -8.2357 
5.06287 2.08447 -0.859482 
-5.69093 5.73423 -7.56972 
7.83946 -5.3733 5.5395 
16.1006 -2.53116 -11.0444 
-8.55308 -4.63522 -18.0643 
6.27888 12.4821 19.1041 
-38.6751 17.9699 -20.54 
-50.5701 -4.71116 15.704 
-23.1031 13.0442 -20.3728 
-8.01571 14.2194 -18.3384 
4.53236 6.82662 17.9595 
-20.2012 2.35626 -35.6018 
6.12051 12.2798 11.6389 
21.3365 22.464 -3.49992 
ITEM: TIMESTEP
400
ITEM: NUMBER OF CELLS
100
ITEM: BOX BOUNDS ss rr pp
0 1
0 0.01
-0.5 0.5
ITEM: CELLS f_vel[1] f_vel[2] f_vel[3] 
-11.7329 -19.5246 -0.0403757 
-13.3042 17.7602 -33.1762 
14.6642 -26.9927 11.9598 
10.5695 -14.0802 -15.241 
-2.8116 9.88873 -2.16286 
-6.93017 -7.71118 -1.94873 
-26.072 -24.1597 -14.4975 
14.4309 -14.1914 -10.3722 
-11.045 -23.3235 8.85078 
19.0333 12.3177 -12.4077 
-11.2236 0.99567 12.1885 
-8.80426 43.2986 -13.8356 
-11.2993 -0.657241 10.1379 
-19.0914 38.4771 -5.26191 
-10.6764 -5.98982 15.157 
-26.0944 -8.94192 10.5602 
9.69808 13.9417 -15.6631 
-6.3222 -19.7645 11.8853 
-10.3291 21.9996 -10.8173 
-1.62667 19.1991 2.32382 
24.4258 -9.29379 0.360483 
7.01574 -28.8166 -4.3729 
17.6589 10.3581 7.94481 
-27.2458 7.96411 5.3251 
19.3284 -2.2276 -25.9196 
15.0712 -1.35632 -13.6065 
-26.3997 -26.9446 2.34128 
-9.74192 -21.0833 -10.4621 
15.9955 -4.71985 21.8517 
-2.77199 -4.26913 40.5656 
0.378575 27.8829 10.4241 
-33.7205 3.58941 1.82759 
6.16846 1.30173 30.3737 
-7.68037 18.8028 -36.5258 
23.3917 11.1833 4.18734 
-35.8076 24.2456 24.0044 
-14.1714 22.8867 -16.0771 
-8.53554 17.7574 12.7963 
9.31282 5.88449 -9.59424 
31.6954 -9.87656 8.26493 
1.25168 0.327113 -7.85243 
7.93439 -11.4419 -17.3941 
7.35712 -7.39635 -12.3198 
8.62256 -1.56061 12.832 
22.9959 42.2254 2.64419 
0.336025 11.9168 33.9389 
11.2922 24.916 10.6587 
7.98 0.822148 -12.1913 
14.8897 4.43172 -16.5351 
-21.7805 13.9709 8.7445 
1.96976 6.21429 36.3745 
2.04848 13.6474 -31.3316 
-12.0695 30.0777 -13.933 
-25.6787 -4.56285 -20.1689 
-3.38083 -8.97676 3.56275 
15.8091 18.1996 -4.35737 
0.263115 15.2819 8.83621 
-1.17567 -13.9049 -8.82294 
-4.19958 14.7873 -2.25419 
14.2064 -18.2519 -0.451173 
-21.7817 -1.86369 -17.3557 
-33.4134 5.42674 -26.4098 
-13.9909 28.9894 9.81746 
1.85384 -7.70339 12.7551 
37.5304 -8.80534 -10.8656 
-20.4757 22.1159 -18.6907 
11.8831 9.95677 -3.14755 
-11.4539 10.213 -9.98475 
-20.5765 9.17681 9.40264 
37.7769 -11.7692 -1.63645 
-12.47 -5.93545 1.55964 
17.8152 4.24667 19.6013 
-20.0981 -4.21135 2.29199 
8.84497 14.0042 -24.036 
-22.0039 -2.17815 -5.98248 
-28.4022 -8.70661 -3.25531 
0.530192 -11.8167 -12.7647 
8.32664 18.8479 0.417901 
12.1571 6.18247 -12.9261 
-26.5129 -26.5584 0.502704 
15.1435 25.3302 9.15158 
3.1457 2.83136 21.1786 
7.92728 -13.0857 16.8426 
2.01139 -6.09473 -4.87366 
-3.66634 13.964 -1.33099 
2.0422 39.762 -12.7059 
6.5044 -23.7091 25.2732 
-11.3096 -7.00985 9.20559 
-0.586129 24.257 -7.22962 
-15.2994 13.5681 -16.3422 
-10.4909 -6.91542 4.82222 
15.2912 15.3464 -0.798063 
-26.4897 -12.5539 0.894277 
29.165 -18.1575 -1.28473 
20.2702 -26.6516 -16.1432 
-5.80619 4.55364 8.49002 
-12.5043 -21.7509 -13.1416 
-17.4111 -12.126 -14.866 
5.75307 6.46282 -14.5794 
-0.816389 -0.279314 17.7397 
ITEM: TIMESTEP
500
ITEM: NUMBER OF CELLS
100
ITEM: BOX BOUNDS ss rr pp
0 1
0 0.01
-0.5 0.5
ITEM: CELLS f_vel[1] f_vel[2] f_vel[3] 
11.6791 15.7466 -11.9823 
-17.0489 -9.80678 -2.04924 
21.8736 -18.6582 20.0787 
24.8455 -13.681 0.508417 
-4.87706 -5.37846 3.85981 
20.5399 1.76228 -9.74287 
6.69831 -28.4004 0.788642 
-5.95068 10.1551 -2.36389 
-10.8647 26.0541 -17.2463 
1.30702 -20.9559 7.52357 
26.4619 -11.4266 16.7743 
13.3532 -4.99815 2.97686 
5.86587 -4.26216 -22.7903 
-21.7799 -4.51084 -4.82758 
19.8185 6.70934 -4.83529 
-0.955071 1.34152 0.26657 
25.8734 -9.01027 0.246322 
-4.05806 -14.395 28.8301 
-11.5638 28.2381 -5.65368 
9.08502 -16.4382 -9.46618 
19.3405 44.0039 10.2987 
4.39278 -14.5323 6.38512 
5.96747 16.0585 -20.7891 
-4.9843 4.66355 -1.43128 
3.60255 -18.2531 12.4711 
-1.44144 3.59057 7.93533 
-4.17846 13.2586 -15.3851 
12.3524 -17.1194 6.91946 
9.76449 55.5665 11.7794 
-9.91989 27.9407 -7.16173 
10.927 0.586074 -12.5968 
-14.7383 3.85085 5.78991 
-1.21364 1.11116 20.8303 
13.8427 36.5631 -26.3018 
-1.4576 3.50782 6.30563 
-3.13457 8.93893 -15.4624 
-6.63945 14.9275 -25.2312 
-12.4936 11.7331 -8.25718 
-25.2432 6.91996 -0.755171 
6.99043 9.07478 8.53732 
-13.5157 16.3707 -19.7372 
10.3163 2.89472 7.34459 
37.2925 12.3392 -5.80236 
0.403181 -14.3427 -4.99999 
-31.4495 -20.3442 3.73219 
-17.9395 24.1053 14.2564 
24.6281 5.25105 -14.3503 
-1.68466 -15.2649 14.3795 
-3.56981 1.5505 -27.0777 
-8.82835 19.8134 14.1371 
9.79516 -0.623329 -28.76 
2.50811 -14.5041 -13.605 
43.2978 10.5815 10.5801 
6.70632 -22.0921 -15.6561 
0.472702 -6.6016 12.1649 
10.2406 -3.60897 -5.29715 
-21.8739 -45.4471 -8.28146 
1.4055 -5.52752 40.7334 
-19.8913 -3.05938 2.63217 
-2.71206 -15.9978 20.4399 
-3.30818 -18.3458 -3.52116 
4.83511 -1.82243 23.9248 
12.142 -8.32479 26.8273 
-18.1031 2.65786 14.4129 
-2.01374 4.85095 -25.5803 
-21.9958 11.4626 4.28303 
-0.931959 -13.4412 18.5417 
-10.7003 -17.2112 8.40808 
-4.83221 -35.5345 0.116941 
-20.5282 -1.35143 5.85686 
-8.73774 -11.8135 1.32639 
11.5433 3.49256 43.4926 
-13.0346 29.0704 38.0722 
-12.8067 -1.08872 -36.5832 
-2.308 15.0524 27.07 
-9.95461 19.9172 23.2182 
-35.9272 4.06008 16.6105 
-8.73622 -10.26 -15.564 
-17.8963 -9.73491 -4.06271 
-18.1837 -5.7489 31.8927 
-1.86669 -3.45213 3.3757 
6.17188 1.81454 -1.03338 
24.1151 -10.2359 -25.8595 
-8.27214 -9.01379 -11.23 
-10.1339 7.29189 7.62829 
12.9762 2.83737 -1.22871 
26.3939 -9.75569 -8.91724 
-2.5585 5.11098 10.6458 
-1.67612 -21.783 17.3959 
-4.85844 -3.71436 32.6701 
2.45749 -26.0728 -18.723 
0.622612 3.27152 6.42426 
-1.00719 16.59 24.6402 
0.601885 10.4073 10.2022 
2.49717 8.66967 3.32328 
12.9386 -29.0621 10.8317 
11.8737 -2.9817 18.8182 
-25.0085 20.258 -9.37754 
-0.696195 -9.19682 -16.6783 
-12.4269 11.1306 -4.46522 
ITEM: TIMESTEP
600
ITEM: NUMBER OF CELLS
100
ITEM: BOX BOUNDS ss rr pp
0 1
0 0.01
-0.5 0.5
ITEM: CELLS f_vel[1] f_vel[2] f_vel[3] 
-2.08239 11.4417 5.12255 
29.2951 9.05572 3.95102 
-1.25023 -25.1633 1.84482 
-9.69342 21.2656 -9.94786 
13.6552 22.5942 -11.9416 
-1.22718 -1.27305 1.5564 
8.30216 4.17252 14.9975 
4.59703 -14.9165 -12.4084 
18.9361 -17.8731 4.07921 
16.2269 -16.4552 -24.8802 
-7.23473 9.91542 -4.80648 
-26.2344 1.6459 0.67074 
0.148354 -14.0768 12.1352 
-23.4532 20.2358 -8.08592 
1.22783 7.89404 -3.48856 
-6.68549 -40.9572 -6.01739 
7.30122 -0.619382 -23.8836 
12.4719 -7.53198 7.63427 
-22.4512 -12.8069 -25.9952 
-20.9422 9.24663 39.0061 
-7.75732 19.4427 -14.887 
16.5168 -13.6449 -0.243187 
-1.48908 -27.8659 -27.3529 
-14.9887 21.372 1.21781 
5.13694 -34.5186 4.13608 
-7.38186 -5.13105 -15.6097 
13.9384 -11.9473 16.0512 
13.2141 2.06298 7.26049 
-10.3101 -5.08106 9.25167 
33.1529 15.562 -26.4595 
4.45593 -7.46804 11.234 
-10.334 1.19437 16.3896 
-3.49416 28.0024 21.226 
1.23898 1.08708 -7.87057 
11.5489 11.344 11.6183 
-6.81567 7.15662 7.5539 
1.29917 -17.8853 9.91688 
-9.16805 -19.0281 -16.7499 
-10.8672 -18.4845 -18.7691 
25.5794 -9.25489 -15.0701 
-18.3272 -5.87972 -17.3388 
-3.716 -9.30557 -35.6853 
16.0587 21.4378 14.8213 
5.27678 1.01112 -10.7089 
9.13329 3.64424 1.18146 
19.344 -1.2449 25.7652 
-10.7699 5.37636 9.52311 
4.86849 8.24302 -38.6193 
2.43458 26.5287 -45.01 
53.4968 -19.2209 -2.46455 
-22.1041 -11.0291 0.116492 
14.2792 -16.8271 14.3696 
-2.84751 18.9774 7.54068 
-26.8506 -15.4097 -1.82645 
9.63006 -11.5548 -1.86947 
-1.90992 -12.9875 0.337202 
-0.853717 -23.7276 12.8416 
2.02613 -3.60308 15.1949 
1.03722 3.57386 10.0499 
13.8784 9.48715 -17.7108 
-12.873 -17.6337 -1.26019 
-24.1526 18.9974 18.3063 
15.429 -17.5066 -11.4549 
7.94072 -13.6646 20.5475 
11.0227 4.85682 -0.596748 
-34.2885 7.82376 30.1658 
8.75904 -22.7272 -3.49499 
6.92779 9.03076 15.4338 
-36.0648 2.59057 -5.21358 
16.045 4.1131 -10.9797 
2.66676 5.15081 12.6005 
-14.8965 8.18791 -18.4842 
-22.3999 6.82213 5.90231 
-19.9605 10.2926 -33.9711 
24.3344 -4.26187 -14.5234 
-33.0252 -3.34678 -23.2345 
-0.137537 16.9175 -10.4325 
-26.2656 -19.6759 -28.07 
-6.6762 -2.85147 -7.94881 
4.13084 15.5844 0.592873 
-32.6353 -14.1882 2.77884 
-2.37507 27.8946 17.5378 
2.68528 -7.30271 22.7001 
-3.08824 13.4959 39.4135 
14.9844 -5.59106 -13.4252 
-19.9748 -15.11 -22.1977 
-19.9184 -6.81921 -12.8462 
-24.4671 -1.76128 -5.20448 
0.770092 -34.801 1.17807 
16.3656 4.80562 -24.8852 
-8.88383 -27.2619 -14.137 
3.67677 24.4036 -9.18536 
8.23085 17.9109 -22.8364 
7.20092 -0.644726 -20.0644 
-3.57573 -27.4216 18.6166 
3.40305 10.8492 -7.24237 
8.17354 -2.31726 -15.9465 
13.1913 15.1677 -0.37449 
-11.259 -25.7657 10.1825 
-3.7209 -42.532 4.52348 
ITEM: TIMESTEP
700
ITEM: NUMBER OF CELLS
100
ITEM: BOX BOUNDS ss rr pp
0 1
0 0.01
-0.5 0.5
ITEM: CELLS f_vel[1] f_vel[2] f_vel[3] 
17.9655 -19.5792 -13.3477 
-4.08111 -9.00636 -16.6647 
13.8861 -1.10648 1.44285 
9.5111 -25.3274 -16.9262 
13.6704 24.6072 16.922 
-31.0867 0.465076 9.42701 
1.63262 -27.4297 -7.62375 
-2.88303 -4.05609 -19.8135 
-7.8749 21.4278 8.46725 
23.7196 -9.78878 -28.6743 
10.0136 -1.95832 2.39373 
32.1228 7.8349 -3.85824 
-13.2343 -12.9428 2.52381 
-2.0313 -19.9586 20.229 
0.267476 10.7733 19.1478 
0.665743 -0.0716631 -18.0256 
2.18127 -19.3504 -11.2252 
9.66053 -4.89296 -11.4584 
7.36967 -1.07683 16.4788 
-17.7857 -10.7127 -15.06 
-1.78135 -4.91211 23.7342 
-18.1762 5.07628 3.46146 
-9.48385 5.59204 9.20419 
-9.84548 -1.75138 3.86464 
-14.5047 -25.8924 -10.4922 
14.9844 20.0893 -8.58013 
10.5799 8.64491 -1.61438 
12.1421 -13.1398 -7.31452 
-5.57185 -6.16335 24.0807 
17.2004 -5.97433 -12.5754 
-5.90753 21.9546 -1.61954 
10.334 -15.3608 -25.7822 
9.49698 8.24354 1.7325 
-7.84482 -21.6665 -43.5403 
-5.90008 -9.83184 -0.653303 
11.3197 10.9834 12.2461 
-14.8024 24.7082 -16.1134 
19.7341 8.44568 34.2309 
-11.7591 11.8614 1.7069 
-3.11723 13.9069 -13.5794 
-8.53077 16.8924 1.46644 
1.03028 -19.7713 13.6339 
-2.61992 10.191 8.41045 
7.57122 -17.0059 -31.3918 
0.497965 12.6241 -28.7354 
-16.1511 7.28581 -24.4856 
16.862 -6.463 12.7593 
-11.0633 7.51129 -6.705 
-8.98328 -6.7806 -2.08233 
4.23491 14.2608 21.1281 
-4.93106 34.3676 -4.75126 
-28.7055 15.0417 3.24731 
-23.6995 -10.7759 0.226813 
9.85666 -21.6984 1.87566 
1.23198 -12.6293 -3.11133 
-11.0153 11.4848 -8.38233 
-39.1707 -3.50164 -8.72928 
-9.27783 14.8188 -9.29495 
-2.37113 0.957974 8.76609 
-3.72208 14.4403 15.3994 
32.4157 -25.9211 -2.38559 
8.47694 -4.02514 41.352 
-3.97718 1.93839 -25.8443 
26.2175 -30.4476 7.25087 
1.20321 -5.54233 6.71411 
19.3463 0.613444 -21.0773 
-15.949 -23.2729 30.8196 
-1.83637 -8.64157 1.23788 
-13.2222 -14.8307 -37.5165 
0.647135 6.66449 9.24877 
0.01019 -2.35047 9.47291 
26.9829 1.67583 1.6839 
-32.3258 18.8551 -51.8095 
8.12673 -3.77676 -4.08572 
-4.15626 20.0909 16.7987 
-3.60901 6.63912 -2.04383 
7.15506 -6.73086 -26.7711 
3.13028 29.0158 5.94198 
28.9717 -15.0199 -9.28547 
-0.0997879 6.285 3.71151 
1.02698 -21.1701 -7.62283 
-23.6141 17.967 12.6743 
-3.1338 -27.3443 -16.8109 
-7.76732 12.4834 0.416154 
-19.5521 13.7606 21.5561 
-3.11401 -2.70626 27.177 
-4.86438 1.13371 14.7336 
5.13766 24.2224 29.0257 
-18.37 -8.71742 22.0657 
8.59573 0.879252 -1.32981 
9.70797 0.57142 -21.9479 
-20.7515 4.55326 3.36503 
11.4348 12.2052 -34.344 
-4.96164 -16.7924 7.26914 
-13.4703 13.5037 7.84351 
19.6893 -3.78144 -25.8747 
12.3839 7.77837 -10.1684 
3.99133 -32.3281 -21.382 
-14.0442 -12.4822 5.08389 
18.1769 15.9306 17.7001 
ITEM: TIMESTEP
800
ITEM: NUMBER OF CELLS
100
ITEM: BOX BOUNDS ss rr pp
0 1
0 0.01
-0.5 0.5
ITEM: CELLS f_vel[1] f_vel[2] f_vel[3] 
1.64338 -0.160748 3.13769 
20.2223 -13.7141 -6.29815 
3.36717 -11.3177 8.79918 
-18.6223 -7.91692 -15.846 
-3.47373 -13.8218 1.38994 
-5.79954 -10.9503 15.5799 
15.0991 9.31594 -23.2336 
-0.520324 -7.46363 -15.1578 
0.620263 9.5259 -37.573 
24.733 -11.589 -17.3761 
-9.49736 -9.75889 -7.63625 
10.6448 5.72246 11.3647 
-17.507 -0.399633 11.2064 
-13.4891 -4.73779 -18.8654 
-11.9754 7.28732 -11.0836 
-1.24029 -25.1276 12.4961 
10.4798 5.59544 -1.28785 
12.7119 7.55655 5.08717 
4.37825 4.41912 -25.8612 
6.2157 14.3922 -56.9076 
9.10974 -6.26526 -8.05707 
8.45795 -13.3153 -14.4059 
-28.3424 -20.9821 -0.188242 
-1.43595 3.64727 7.32805 
-25.5825 -7.96756 -9.72561 
-9.36177 16.1654 3.96078 
9.13558 -15.2987 7.4215 
-14.3492 25.8349 -37.7245 
-20.5442 -6.86382 -4.35584 
-17.5435 16.6851 -2.50106 
12.9163 -6.36144 24.6401 
21.5566 -26.6382 0.317798 
-29.296 -14.8296 2.25261 
-8.92461 -0.829736 -15.1527 
34.3525 5.08376 -2.46052 
9.43824 -3.21421 -7.50889 
2.91001 14.1139 -10.2125 
-1.82941 -12.2915 -11.1101 
17.216 -18.1181 0.312064 
-7.06001 -12.4169 11.6544 
15.3223 -7.19154 16.3971 
29.3928 -20.3614 20.8533 
23.9781 19.0769 -1.24141 
-18.6274 -10.244 13.6515 
19.6186 21.2178 -10.86 
-16.0318 -31.1061 -5.23101 
8.20597 -25.9595 8.96666 
9.71568 -13.0741 -4.56819 
-6.14331 21.5412 5.19929 
14.1654 22.5966 -6.0805 
12.3672 29.6312 -21.2203 
32.7182 -12.0327 53.9577 
-31.9656 -25.9545 -3.26227 
19.5531 9.34958 -42.8095 
34.1692 -8.67407 -0.728827 
-10.0101 -16.8778 -2.9259 
-17.6629 0.462846 -3.1606 
11.6076 -16.0804 4.12689 
-8.03385 10.0403 -19.1494 
7.13924 3.94199 -13.0777 
-18.9865 -3.64307 -22.311 
0.0721261 32.8682 -3.72355 
7.40842 26.858 -28.6959 
7.07953 -29.3405 34.9938 
24.3025 -14.0145 -19.6809 
13.3311 -7.07978 7.48788 
-6.05251 1.90217 4.9686 
8.61867 11.6564 -1.39052 
26.6166 -4.98485 7.48358 
-2.14279 -21.361 17.0135 
-2.40351 -11.1216 -3.78227 
11.3518 2.50273 -7.21284 
-8.0198 16.48 33.4063 
-22.5139 7.87048 37.5726 
16.7603 9.02724 -1.52041 
-18.9369 29.1173 -0.668866 
-20.9575 9.90364 -12.6557 
6.53556 -10.5073 -11.7932 
-12.4109 -2.36372 -37.8889 
-28.1765 -11.2597 13.9626 
-13.7194 9.53375 7.18366 
-6.92046 6.66381 -33.6662 
16.1211 17.8584 -26.521 
21.7393 1.51237 -29.9134 
-38.7242 -17.6192 7.36115 
8.26048 -14.54 -32.9728 
-24.9221 -23.3239 -11.5247 
12.1499 -51.9744 -13.5462 
19.7517 2.28973 0.951142 
1.05777 -3.99497 -16.0803 
-9.59174 11.4181 3.14997 
-7.74367 9.4221 -30.1127 
17.2041 -8.98585 8.89514 
-10.2753 0.594922 -2.28075 
11.9618 -15.0204 -38.3325 
-7.88493 32.9709 7.27381 
5.13767 -14.0449 -8.51006 
-21.3153 -7.07048 23.9167 
-8.70882 12.3072 14.6737 
2.635 4.08344 5.8243 
ITEM: TIMESTEP
900
ITEM: NUMBER OF CELLS
100
ITEM: BOX BOUNDS ss rr pp
0 1
0 0.01
-0.5 0.5
ITEM: CELLS f_vel[1] f_vel[2] f_vel[3] 
18.9334 -7.81086 -23.1104 
-9.99086 32.4487 7.38021 
-2.15372 19.02 28.7409 
-14.6278 -1.87492 -9.12916 
24.218 -11.8683 9.56561 
-27.8941 7.09464 -34.8073 
-1.45922 11.4547 22.7678 
6.16881 19.6378 8.31613 
-3.18714 -3.43323 27.2275 
8.72235 6.05011 16.6156 
-8.0487 -17.8756 -10.0799 
17.8938 5.52014 -7.3726 
10.8427 4.78157 -12.9799 
35.7062 -3.90954 8.5543 
23.658 21.6745 -23.4406 
-17.8169 4.96631 -7.30435 
4.82598 14.4348 0.216251 
-19.2128 -5.31283 -23.7164 
12.3057 2.10737 -31.1091 
-6.98695 -6.95677 -12.1795 
31.727 6.96152 8.46686 
-1.42695 2.53671 -12.3742 
30.4024 -7.95779 28.2707 
32.2644 -11.1109 23.2023 
21.2445 -2.28401 0.56612 
13.5174 24.2921 10.9276 
1.19829 -3.57259 -13.0649 
-13.8166 -34.6815 -11.3946 
-3.68518 -10.6441 4.9532 
21.5055 -9.5053 13.1946 
-31.3039 -1.03817 -22.7271 
-1.89614 25.4978 13.6307 
-7.94801 -9.40148 9.9242 
-29.2347 16.0193 -13.8756 
3.69907 19.3671 -8.58611 
-4.21774 -15.0506 -1.5166 
-18.7937 14.7161 30.6906 
-22.3179 -4.6565 22.0996 
21.0481 25.3596 -19.5994 
-4.90432 -4.89143 -15.0388 
-10.6778 -0.922823 19.3004 
30.721 12.6596 -5.04122 
-7.113 14.8615 -17.6262 
-21.0822 -17.5073 -16.7773 
-15.799 4.84671 5.69506 
23.1711 22.5987 13.0825 
-3.12645 5.86442 -10.2133 
-9.32169 11.6758 -5.50196 
8.2376 -1.14408 -6.84696 
9.47216 -9.45051 -28.0636 
-12.9571 13.2724 9.46135 
1.59839 -0.979733 -14.3259 
21.3161 11.7998 -14.7635 
-5.31819 -4.74356 -6.68341 
20.0247 4.46983 -18.8396 
-9.45687 -0.0581401 -2.96228 
-2.12667 -17.0316 -12.3407 
1.72039 -18.6004 -22.2575 
-17.2816 17.794 10.6827 
-0.930404 -26.9914 4.13437 
17.431 -14.8846 -12.6637 
-5.79647 -4.18433 6.4981 
4.25036 3.94906 21.5604 
11.5179 31.2956 5.75781 
-13.5732 -7.19751 28.2135 
-12.4057 2.97243 -20.3557 
8.27921 9.93319 42.8729 
-2.05588 -21.8316 -5.08567 
10.08 11.9273 1.03932 
1.51765 25.0666 -7.18409 
20.4884 -9.11902 -13.8934 
15.1933 5.48072 -11.9996 
16.6833 1.39845 8.01628 
-1.47828 -16.9115 3.40069 
2.37747 -11.0157 -8.23294 
-7.16328 -10.957 -18.7889 
-14.8829 -19.9416 -11.6105 
-20.3439 2.75722 2.90444 
19.2295 -3.28199 -7.05856 
-22.7664 28.671 -3.90174 
14.9767 1.86271 7.1574 
22.7585 14.9745 -14.4727 
-36.2568 0.184118 -14.5691 
17.4706 38.1624 7.23673 
9.28734 -14.0412 -5.80259 
32.5772 7.67431 38.0219 
4.34724 -6.40688 -21.7082 
-14.7894 -8.17068 -13.8472 
20.3941 -17.279 17.4498 
-9.81719 7.18501 32.7906 
16.7553 15.0775 2.09977 
17.14 -10.8289 16.3118 
-27.7273 -3.56771 -9.01057 
21.6165 -7.54506 -1.79644 
2.8071 26.5572 2.79606 
-13.9416 -16.4929 -0.731202 
25.4172 -27.5424 0.781032 
11.2603 16.017 -17.6518 
-14.3297 11.5085 7.54011 
-25.1468 14.5751 25.4149 
ITEM: TIMESTEP
1000
ITEM: NUMBER OF CELLS
100
ITEM: BOX BOUNDS ss rr pp
0 1
0 0.01
-0.5 0.5
ITEM: CELLS f_vel[1] f_vel[2] f_vel[3] 
1.35065 7.73843 -1.42167 
18.6816 -10.0261 9.35035 
17.1392 -13.9217 -1.08492 
30.0072 -1.02377 22.3096 
-37.7908 37.2106 -3.78391 
-3.85253 -2.63659 -7.1351 
25.285 4.52539 7.65898 
-1.50841 12.5764 -16.1994 
-16.554 11.9932 3.05761 
19.5909 12.1501 7.80518 
13.6677 -17.271 12.288 
-14.0593 8.37913 5.34263 
4.35986 42.0358 21.3391 
9.79975 -20.8227 -0.818647 
20.2951 14.2876 -5.07827 
12.5318 -8.52399 42.6625 
11.2386 -6.59883 -0.894525 
10.0117 7.32765 -32.4899 
17.0488 -1.19353 -2.85143 
13.5725 10.3178 2.09336 
-4.48373 3.50994 -10.4993 
27.6706 16.7655 15.7996 
-18.7591 11.8585 -11.2999 
-20.6535 0.230115 36.7057 
14.5132 9.66092 -23.8304 
-15.3654 4.33568 -16.1367 
-15.7078 10.7607 -9.12102 
10.4816 9.65319 -7.36309 
14.1059 -11.7168 -10.0032 
29.2645 14.5944 7.52507 
-7.79465 -0.358116 7.83204 
41.1267 13.6513 2.13272 
-5.01524 7.84967 -1.75745 
12.6737 11.4923 -10.1843 
-5.63404 -9.0328 36.9827 
11.84 2.78922 -16.6778 
-17.5641 -33.5925 9.80395 
8.47106 11.4783 14.9687 
11.4271 -13.8662 -2.11051 
-15.1368 0.927364 24.6424 
7.31031 -1.44389 10.5935 
15.0954 11.5597 11.7293 
5.8244 15.9218 5.64443 
3.48422 10.8074 8.78232 
-9.99488 -11.2676 19.0818 
8.68643 18.1609 12.2178 
-15.6001 -4.36646 14.3834 
-17.8357 -9.29073 14.3048 
-17.8379 12.3963 -6.63204 
-3.01612 0.328144 -6.94197 
-5.28665 3.7243 8.8186 
5.50569 -18.8989 -2.4486 
2.48113 15.9065 1.62731 
-34.8113 -16.4779 2.76021 
13.1783 -14.5584 -22.8313 
12.4693 39.7143 -6.1872 
-2.84134 -11.8863 25.1878 
-5.18981 20.6998 -12.5371 
1.87788 11.0847 -12.766 
-5.89454 -1.73551 6.1556 
3.39612 -10.4453 -12.284 
20.9365 16.1309 33.7513 
-17.7223 -6.6528 -22.242 
22.5128 -5.20717 -8.22514 
6.77328 36.54 13.4959 
19.3233 -15.8016 -28.1709 
-16.9624 8.07455 5.22327 
-8.94407 16.479 17.7831 
6.47525 20.1485 -9.33055 
13.6721 9.3414 1.082 
-22.1587 0.0985836 -12.7727 
-19.0483 2.68684 -5.14663 
-12.0826 -11.1647 -15.4902 
-7.62302 3.72353 5.31964 
11.7725 2.80349 -3.14954 
-12.996 20.7045 30.1341 
6.95256 21.5962 12.8546 
-9.95883 14.9016 13.4375 
-18.2576 -1.55539 11.0182 
49.0314 3.52053 -7.60709 
16.1041 20.1964 -2.7389 
34.869 -12.93 12.5806 
-22.0906 0.692216 -20.789 
-11.3214 -26.6078 43.4641 
1.10451 11.7774 -12.0118 
29.3578 6.81893 -4.76544 
-10.2839 14.515 3.91346 
11.9259 -20.4832 -19.6437 
6.32617 9.7503 7.77372 
3.72832 6.28091 -9.54065 
2.20937 28.8104 -8.36145 
-17.0547 -0.26959 -1.60103 
-11.1401 -6.18311 0.381856 
-3.40982 -3.8151 -0.191149 
-14.7452 1.16357 11.4305 
38.9971 -5.98129 -3.1569 
8.52826 -5.646 -13.6581 
12.5547 12.0799 9.04386 
20.8229 12.6806 -7.00008 
-12.835 -37.317 12.2099 
ITEM: TIMESTEP
1100
ITEM: NUMBER OF CELLS
100
ITEM: BOX BOUNDS ss rr pp
0 1
0 0.01
-0.5 0.5
ITEM: CELLS f_vel[1] f_vel[2] f_vel[3] 
1.14984 -40.8913 -5.89478 
9.79561 -12.0353 2.53328 
20.2818 -2.09606 5.68034 
-10.3983 21.0211 11.2118 
20.5709 -8.86589 -2.80011 
1.28054 -18.5994 -0.588868 
31.2759 5.11494 -32.7638 
3.71147 25.7381 -12.4286 
-9.14247 -12.3453 15.3649 
9.53077 5.16998 -13.5748 
-7.12482 20.6369 14.351 
9.59425 25.1525 -1.68724 
-23.1677 0.143536 1.5703 
7.30594 11.544 3.82122 
3.74568 -28.213 5.08588 
11.3474 -12.3479 -25.3903 
16.5687 11.6372 -12.4728 
2.26897 -8.75008 -13.3918 
11.211 34.3585 6.04852 
8.07368 37.2261 8.49462 
-16.2194 -7.54058 -8.66907 
5.72284 21.7812 -11.629 
-10.5316 4.46597 10.4124 
-1.05755 -20.0965 -17.2702 
-1.51504 16.8333 -4.47239 
0.148658 -4.16914 1.33968 
-1.90385 22.963 -1.94106 
-22.6913 4.26772 0.492002 
1.74765 11.635 -33.5108 
-5.29706 -17.2528 7.74146 
0.140625 24.3319 -0.204363 
15.463 -29.6921 -8.66806 
40.4635 -19.0637 -0.296332 
-12.2679 -5.74158 19.4282 
2.7929 -4.99408 -15.655 
10.222 -25.413 11.567 
12.5821 8.74228 4.95892 
-11.4596 3.5912 5.19604 
18.7935 -4.10595 1.24772 
-8.81023 -27.9327 -10.9647 
-9.22426 9.77041 4.89612 
-6.58472 18.1096 21.1479 
22.6373 34.5109 -14.6485 
17.7043 2.91193 6.28582 
-18.2081 -13.42 9.44884 
54.6412 -18.4073 -8.55796 
-11.4201 -14.5796 -6.41231 
-2.35446 3.49579 -12.3518 
-46.0335 0.761908 -28.3437 
0.668197 25.1165 0.943258 
7.27765 3.48783 -13.1584 
-0.47545 -7.23091 4.86873 
-12.8455 -3.15199 4.10362 
-6.04979 3.57814 2.98735 