ITEM: TIMESTEP
65000
ITEM: NUMBER OF CELLS
9720
ITEM: BOX BOUNDS so pp pp
-0.1 0.2
-0.1 0.1
-0.5 0.5
ITEM: CELLS idstr 
1-1 
1-2 
1-3 
1-4 
485-1 
485-2 
485-3 
485-4 
2-1 
2-2 
2-3 
2-4 
486-1 
486-3 
65-1 
65-2 
65-3 
65-4 
241-1 
241-2 
241-3 
241-4 
66-1 
66-3 
242-1 
242-2 
242-3 
242-4 
243-1 
243-2 
243-3 
243-4 
244-1 
244-2 
244-3 
244-4 
245-1 
245-2 
245-3 
245-4 
421-1 
421-2 
421-3 
421-4 
246-1 
246-3 
422-1 
422-2 
422-3 
422-4 
423-1 
423-2 
423-3 
423-4 
424-1 
424-2 
424-3 
424-4 
425-1 
425-2 
425-3 
425-4 
426-1 
426-3 
121-1 
121-2 
121-3 
121-4 
122-1 
122-2 
122-3 
122-4 
123-1 
123-2 
123-3 
123-4 
124-1 
124-2 
124-3 
124-4 
125-1 
125-2 
125-3 
125-4 
301-1 
301-2 
301-3 
301-4 
126-1 
126-3 
302-1 
302-2 
302-3 
302-4 
303-1 
303-2 
303-3 
303-4 
304-1 
304-2 
304-3 
304-4 
305-1 
305-2 
305-3 
305-4 
481-1 
481-2 
481-3 
481-4 
306-1 
306-3 
482-1 
482-2 
482-3 
482-4 
483-1 
483-2 
483-3 
483-4 
484-1 
484-2 
484-3 
484-4 
4-1 
4-2 
4-3 
4-4 
5-1 
5-2 
5-3 
5-4 
181-1 
181-2 
181-3 
181-4 
185-1 
185-2 
185-3 
185-4 
361-1 
361-2 
361-3 
361-4 
186-1 
186-3 
362-1 
362-2 
362-3 
362-4 
364-1 
364-2 
364-3 
364-4 
365-1 
365-2 
365-3 
365-4 
541-1 
541-2 
541-3 
541-4 
366-1 
366-3 
542-1 
542-2 
542-3 
542-4 
543-1 
543-2 
543-3 
543-4 
544-1 
544-2 
544-3 
544-4 
61-1 
61-2 
61-3 
61-4 
545-1 
545-2 
545-3 
545-4 
62-1 
62-2 
62-3 
62-4 
63-1 
63-2 
63-3 
63-4 
64-1 
64-2 
64-3 
64-4 
3-1 
3-2 
3-3 
3-4 
6-1 
6-3 
182-1 
182-2 
182-3 
182-4 
183-1 
183-2 
183-3 
183-4 
184-1 
184-2 
184-3 
184-4 
363-1 
363-2 
363-3 
363-4 
310-1 
310-2 
310-3 
310-4 
486-2 
486-4 
309-1 
309-2 
309-3 
309-4 
549-1 
549-2 
549-3 
549-4 
66-2 
66-4 
550-1 
550-2 
550-3 
550-4 
67-1 
67-2 
67-3 
67-4 
551-1 
551-3 
68-1 
68-2 
68-3 
68-4 
69-1 
69-2 
69-3 
69-4 
70-1 
70-2 
70-3 
70-4 
246-2 
246-4 
71-1 
71-2 
71-3 
71-4 
247-1 
247-2 
247-3 
247-4 
248-1 
248-2 
248-3 
248-4 
249-1 
249-2 
249-3 
249-4 
250-1 
250-2 
250-3 
250-4 
426-2 
426-4 
251-1 
251-2 
251-3 
251-4 
427-1 
427-2 
427-3 
427-4 
428-1 
428-2 
428-3 
428-4 
429-1 
429-2 
429-3 
429-4 
430-1 
430-2 
430-3 
430-4 
431-1 
431-2 
431-3 
431-4 
126-2 
126-4 
127-1 
127-2 
127-3 
127-4 
128-1 
128-2 
128-3 
128-4 
129-1 
129-2 
129-3 
129-4 
130-1 
130-2 
130-3 
130-4 
306-2 
306-4 
131-1 
131-2 
131-3 
131-4 
307-1 
307-2 
307-3 
307-4 
308-1 
308-2 
308-3 
308-4 
489-1 
489-2 
489-3 
489-4 
9-1 
9-2 
9-3 
9-4 
10-1 
10-2 
10-3 
10-4 
186-2 
186-4 
188-1 
188-2 
188-3 
188-4 
189-1 
189-2 
189-3 
189-4 
190-1 
190-2 
190-3 
190-4 
366-2 
366-4 
191-1 
191-2 
191-3 
191-4 
367-1 
367-2 
367-3 
367-4 
369-1 
369-2 
369-3 
369-4 
370-1 
370-2 
370-3 
370-4 
546-1 
546-2 
546-3 
546-4 
371-1 
371-2 
371-3 
371-4 
547-1 
547-2 
547-3 
547-4 
548-1 
548-2 
548-3 
548-4 
311-1 
311-2 
311-3 
311-4 
487-1 
487-2 
487-3 
487-4 
488-1 
488-2 
488-3 
488-4 
6-2 
6-4 
490-1 
490-2 
490-3 
490-4 
7-1 
7-2 
7-3 
7-4 
491-1 
491-3 
491-4 
8-1 
8-2 
8-3 
8-4 
11-1 
11-2 
11-3 
11-4 
187-1 
187-2 
187-3 
187-4 
368-1 
368-2 
368-3 
368-4 
135-1 
135-2 
135-3 
135-4 
133-1 
133-2 
133-3 
133-4 
555-1 
555-2 
555-3 
555-4 
72-1 
72-2 
72-3 
72-4 
556-1 
556-2 
556-3 
556-4 
73-1 
73-2 
73-3 
73-4 
557-1 
557-3 
74-1 
74-2 
74-3 
74-4 
75-1 
75-2 
75-3 
75-4 
76-1 
76-2 
76-3 
76-4 
252-1 
252-2 
252-3 
252-4 
77-1 
77-3 
253-1 
253-2 
253-3 
253-4 
254-1 
254-2 
254-3 
254-4 
255-1 
255-2 
255-3 
255-4 
256-1 
256-2 
256-3 
256-4 
432-1 
432-2 
432-3 
432-4 
257-3 
433-1 
433-2 
433-3 
433-4 
434-1 
434-2 
434-3 
434-4 
435-1 
435-2 
435-3 
435-4 
436-1 
436-2 
436-3 
436-4 
437-1 
437-3 
132-1 
132-2 
132-3 
132-4 
134-1 
134-2 
134-3 
134-4 
136-1 
136-2 
136-3 
136-4 
312-1 
312-2 
312-3 
312-4 
137-1 
137-3 
313-1 
313-2 
313-3 
313-4 
317-1 
317-3 
493-1 
493-2 
493-3 
493-4 
494-1 
494-2 
494-3 
494-4 
12-1 
12-2 
12-3 
12-4 
496-1 
496-2 
496-3 
496-4 
13-1 
13-2 
13-3 
13-4 
15-1 
15-2 
15-3 
15-4 
17-1 
17-3 
193-1 
193-2 
193-3 
193-4 
194-1 
194-2 
194-3 
194-4 
196-1 
196-2 
196-3 
196-4 
372-1 
372-2 
372-3 
372-4 
197-1 
197-3 
373-1 
373-2 
373-3 
373-4 
374-1 
374-2 
374-3 
374-4 
375-1 
375-2 
375-3 
375-4 
551-2 
551-4 
376-1 
376-2 
376-3 
376-4 
552-1 
552-2 
552-3 
552-4 
553-1 
553-2 
553-3 
553-4 
554-1 
554-2 
554-3 
554-4 
14-1 
14-2 
14-3 
14-4 
314-1 
314-2 
314-3 
314-4 
315-1 
315-2 
315-3 
315-4 
491-2 
316-1 
316-2 
316-3 
316-4 
492-1 
492-2 
492-3 
492-4 
495-1 
495-2 
495-3 
495-4 
16-1 
16-2 
16-3 
16-4 
192-1 
192-2 
192-3 
192-4 
195-1 
195-2 
195-3 
195-4 
664-1 
664-2 
664-3 
664-4 
662-1 
662-2 
662-3 
662-4 
1146-1 
1146-3 
724-1 
724-2 
724-3 
724-4 
725-1 
725-2 
725-3 
725-4 
901-1 
901-2 
901-3 
901-4 
726-1 
726-3 
902-1 
902-2 
902-3 
902-4 
903-1 
903-2 
903-3 
903-4 
904-1 
904-2 
904-3 
904-4 
905-1 
905-2 
905-3 
905-4 
1081-1 
1081-2 
1081-3 
1081-4 
1082-1 
1082-2 
1082-3 
1082-4 
1083-1 
1083-2 
1083-3 
1083-4 
1084-1 
1084-2 
1084-3 
1084-4 
601-1 
601-2 
601-3 
601-4 
1085-1 
1085-2 
1085-3 
1085-4 
602-1 
602-2 
602-3 
602-4 
1086-1 
1086-3 
603-1 
603-2 
603-3 
603-4 
604-1 
604-2 
604-3 
604-4 
605-1 
605-2 
605-3 
605-4 
781-1 
781-2 
781-3 
781-4 
606-1 
606-3 
782-1 
782-2 
782-3 
782-4 
783-1 
783-2 
783-3 
783-4 
784-1 
784-2 
784-3 
784-4 
785-1 
785-2 
785-3 
785-4 
961-1 
961-2 
961-3 
961-4 
786-1 
786-3 
962-1 
962-2 
962-3 
962-4 
963-1 
963-2 
963-3 
963-4 
964-1 
964-2 
964-3 
964-4 
965-1 
965-2 
965-3 
965-4 
1141-1 
1141-2 
1141-3 
1141-4 
966-1 
966-3 
1142-1 
1142-2 
1142-3 
1142-4 
1143-1 
1143-2 
1143-3 
1143-4 
1144-1 
1144-2 
1144-3 
1144-4 
661-1 
661-2 
661-3 
661-4 
1145-1 
1145-2 
1145-3 
1145-4 
663-1 
663-2 
663-3 
663-4 
665-1 
665-2 
665-3 
665-4 
841-1 
841-2 
841-3 
841-4 
845-1 
845-2 
845-3 
845-4 
1021-1 
1021-2 
1021-3 
1021-4 
846-1 
846-3 
1022-1 
1022-2 
1022-3 
1022-4 
1024-1 
1024-2 
1024-3 
1024-4 
1025-1 
1025-2 
1025-3 
1025-4 
1026-1 
1026-3 
721-1 
721-2 
721-3 
721-4 
722-1 
722-2 
722-3 
722-4 
723-1 
723-2 
723-3 
723-4 
844-1 
844-2 
844-3 
844-4 
666-1 
666-3 
842-1 
842-2 
842-3 
842-4 
843-1 
843-2 
843-3 
843-4 
1023-1 
1023-2 
1023-3 
1023-4 
1149-1 
1149-2 
1149-3 
1149-4 
969-1 
969-2 
969-3 
969-4 
908-1 
908-2 
908-3 
908-4 
909-1 
909-2 
909-3 
909-4 
910-1 
910-2 
910-3 
910-4 
1086-2 
1086-4 
911-1 
911-2 
911-3 
911-4 
1087-1 
1087-2 
1087-3 
1087-4 
1088-1 
1088-2 
1088-3 
1088-4 
1089-1 
1089-2 
1089-3 
1089-4 
606-2 
606-4 
1090-1 
1090-2 
1090-3 
1090-4 
607-1 
607-2 
607-3 
607-4 
1091-1 
1091-2 
1091-3 
1091-4 
608-1 
608-2 
608-3 
608-4 
609-1 
609-2 
609-3 
609-4 
610-1 
610-2 
610-3 
610-4 
786-2 
786-4 
611-1 
611-2 
611-3 
611-4 
787-1 
787-2 
787-3 
787-4 
788-1 
788-2 
788-3 
788-4 
789-1 
789-2 
789-3 
789-4 
790-1 
790-2 
790-3 
790-4 
966-2 
966-4 
791-1 
791-3 
967-1 
967-2 
967-3 
967-4 
968-1 
968-2 
968-3 
968-4 
970-1 
970-2 
970-3 
970-4 
1146-2 
1146-4 
971-1 
971-2 
971-3 
971-4 
1147-1 
1147-2 
1147-3 
1147-4 
1148-1 
1148-2 
1148-3 
1148-4 
669-1 
669-2 
669-3 
669-4 
670-1 
670-2 
670-3 
670-4 
846-2 
846-4 
848-1 
848-2 
848-3 
848-4 
849-1 
849-2 
849-3 
849-4 
851-1 
851-3 
1027-1 
1027-2 
1027-3 
1027-4 
1029-1 
1029-2 
1029-3 
1029-4 
1030-1 
1030-2 
1030-3 
1030-4 
726-2 
726-4 
727-1 
727-2 
727-3 
727-4 
728-1 
728-2 
728-3 
728-4 
729-1 
729-2 
729-3 
729-4 
730-1 
730-2 
730-3 
730-4 
906-1 
906-2 
906-3 
906-4 
666-2 
666-4 
1150-1 
1150-2 
1150-3 
1150-4 
731-1 
731-2 
731-3 
731-4 
907-1 
907-2 
907-3 
907-4 
667-1 
667-2 
667-3 
667-4 
1151-1 
1151-2 
1151-3 
1151-4 
668-1 
668-2 
668-3 
668-4 
671-1 
671-2 
671-3 
671-4 
847-1 
847-2 
847-3 
847-4 
850-1 
850-2 
850-3 
850-4 
1026-2 
1026-4 
1028-1 
1028-2 
1028-3 
1028-4 
1031-1 
1031-2 
1031-3 
1031-4 
974-1 
974-2 
974-3 
974-4 
794-1 
794-2 
794-3 
794-4 
732-1 
732-2 
732-3 
732-4 
733-1 
733-2 
733-3 
733-4 
734-1 
734-2 
734-3 
734-4 
735-1 
735-2 
735-3 
735-4 
736-1 
736-2 
736-3 
736-4 
912-1 
912-2 
912-3 
912-4 
737-1 
737-3 
913-1 
913-2 
913-3 
913-4 
914-1 
914-2 
914-3 
914-4 
915-1 
915-2 
915-3 
915-4 
916-1 
916-2 
916-3 
916-4 
1092-1 
1092-2 
1092-3 
1092-4 
917-1 
917-3 
1093-1 
1093-2 
1093-3 
1093-4 
1094-1 
1094-2 
1094-3 
1094-4 
1095-1 
1095-2 
1095-3 
1095-4 
612-1 
612-2 
612-3 
612-4 
1096-1 
1096-2 
1096-3 
1096-4 
613-1 
613-2 
613-3 
613-4 
1097-1 
1097-3 
614-1 
614-2 
614-3 
614-4 
615-1 
615-2 
615-3 
615-4 
791-2 
791-4 
616-1 
616-2 
616-3 
616-4 
792-1 
792-2 
792-3 
792-4 
793-1 
793-2 
793-3 
793-4 
795-1 
795-2 
795-3 
795-4 
796-1 
796-2 
796-3 
796-4 
972-1 
972-2 
972-3 
972-4 
797-1 
797-3 
973-1 
973-2 
973-3 
973-4 
977-1 
977-3 
1153-1 
1153-2 
1153-3 
1153-4 
1154-1 
1154-2 
1154-3 
1154-4 
672-1 
672-2 
672-3 
672-4 
1156-1 
1156-2 
1156-3 
1156-4 
673-1 
673-2 
673-3 
673-4 
674-1 
674-2 
674-3 
674-4 
675-1 
675-2 
675-3 
675-4 
851-2 
851-4 
677-1 
677-3 
853-1 
853-2 
853-3 
853-4 
854-1 
854-2 
854-3 
854-4 
856-1 
856-2 
856-3 
856-4 
1032-1 
1032-2 
1032-3 
1032-4 
857-1 
857-3 
1033-1 
1033-2 
1033-3 
1033-4 
1034-1 
1034-2 
1034-3 
1034-4 
1035-1 
1035-2 
1035-3 
1035-4 
1036-1 
1036-2 
1036-3 
1036-4 
975-1 
975-2 
975-3 
975-4 
976-1 
976-2 
976-3 
976-4 
1152-1 
1152-2 
1152-3 
1152-4 
1155-1 
1155-2 
1155-3 
1155-4 
676-1 
676-2 
676-3 
676-4 
852-1 
852-2 
852-3 
852-4 
855-1 
855-2 
855-3 
855-4 
139-1 
139-2 
139-3 
139-4 
140-1 
140-2 
140-3 
140-4 
204-1 
204-2 
204-3 
204-4 
380-1 
380-2 
205-1 
205-2 
205-3 
205-4 
206-1 
206-3 
77-2 
77-4 
78-1 
78-2 
78-3 
78-4 
79-1 
79-2 
79-3 
79-4 
80-1 
80-2 
80-3 
80-4 
81-1 
81-2 
81-3 
81-4 
257-1 
257-2 
257-4 
82-1 
82-2 
82-3 
82-4 
258-1 
258-2 
258-3 
258-4 
83-1 
83-2 
83-3 
83-4 
259-1 
259-2 
259-3 
259-4 
84-1 
84-2 
84-3 
84-4 
260-1 
260-2 
260-3 
260-4 
85-1 
85-2 
85-3 
85-4 
261-1 
261-2 
261-3 
261-4 
86-1 
86-3 
262-1 
262-2 
262-3 
262-4 
263-1 
263-2 
263-3 
263-4 
264-1 
264-2 
264-3 
264-4 
265-1 
265-2 
265-3 
265-4 
266-1 
266-3 
137-2 
137-4 
138-1 
138-2 
138-3 
138-4 
141-1 
141-2 
141-3 
141-4 
317-2 
317-4 
142-1 
142-2 
142-3 
142-4 
318-1 
318-2 
318-3 
318-4 
144-1 
144-2 
144-3 
144-4 
320-1 
320-2 
320-3 
320-4 
145-1 
145-2 
145-3 
145-4 
321-1 
321-2 
321-3 
321-4 
323-1 
323-2 
323-3 
323-4 
17-2 
17-4 
325-1 
325-2 
325-3 
325-4 
21-1 
21-2 
21-3 
21-4 
197-2 
197-4 
22-1 
22-2 
22-3 
22-4 
198-1 
198-2 
198-3 
198-4 
23-1 
23-2 
23-3 
23-4 
199-1 
199-2 
199-3 
199-4 
24-1 
24-2 
24-3 
24-4 
200-1 
200-2 
200-3 
200-4 
25-1 
25-2 
25-3 
25-4 
201-1 
201-2 
201-3 
201-4 
26-1 
26-3 
202-1 
202-2 
202-3 
202-4 
20-1 
20-2 
20-3 
20-4 
203-1 
203-2 
203-3 
203-4 
379-2 
143-1 
143-2 
143-3 
143-4 
319-1 
319-2 
319-3 
319-4 
146-1 
146-3 
322-1 
322-2 
322-3 
322-4 
324-1 
324-2 
324-3 
324-4 
18-1 
18-2 
18-3 
18-4 
19-1 
19-2 
19-3 
19-4 
624-1 
624-2 
624-3 
624-4 
444-1 
444-2 
444-3 
444-4 
620-1 
620-2 
620-3 
620-4 
380-3 
380-4 
381-1 
381-2 
381-3 
381-4 
557-2 
557-4 
382-1 
382-2 
382-3 
382-4 
558-1 
558-2 
558-3 
558-4 
383-1 
383-2 
383-3 
383-4 
559-1 
559-2 
559-3 
559-4 
384-1 
384-2 
384-3 
384-4 
560-1 
560-2 
560-3 
560-4 
385-1 
385-2 
385-3 
385-4 
561-1 
561-2 
561-3 
561-4 
386-1 
386-3 
562-1 
562-2 
562-3 
562-4 
563-1 
563-2 
563-3 
563-4 
564-1 
564-2 
564-3 
564-4 
565-1 
565-2 
565-3 
565-4 
566-1 
566-3 
437-2 
437-4 
438-1 
438-2 
438-3 
438-4 
439-1 
439-2 
439-3 
439-4 
440-1 
440-2 
440-3 
440-4 
441-1 
441-2 
441-3 
441-4 
617-1 
617-2 
617-3 
617-4 
442-1 
442-2 
442-3 
442-4 
618-1 
618-2 
618-3 
618-4 
443-1 
443-2 
443-3 
443-4 
619-1 
619-2 
619-3 
619-4 
445-1 
445-2 
445-3 
445-4 
621-1 
621-2 
621-3 
621-4 
446-1 
446-3 
622-1 
622-2 
622-3 
622-4 
623-1 
623-2 
623-3 
623-4 
625-1 
625-2 
625-3 
625-4 
626-1 
626-3 
497-1 
497-2 
497-3 
497-4 
499-1 
499-2 
499-3 
499-4 
500-1 
500-2 
500-3 
500-4 
501-1 
501-2 
501-3 
501-4 
677-2 
677-4 
502-1 
502-2 
502-3 
502-4 
678-1 
678-2 
678-3 
678-4 
504-1 
504-2 
504-3 
504-4 
680-1 
680-2 
680-3 
680-4 
505-1 
505-2 
505-3 
505-4 
681-1 
681-2 
681-3 
681-4 
506-1 
506-3 
682-1 
682-2 
682-3 
682-4 
683-1 
683-2 
683-3 
683-4 
684-1 
684-2 
684-3 
684-4 
377-1 
377-2 
377-3 
377-4 
685-1 
685-2 
685-3 
685-4 
378-1 
378-2 
378-3 
378-4 
686-1 
686-3 
379-1 
379-3 
379-4 
498-1 
498-2 
498-3 
498-4 
503-1 
503-2 
503-3 
503-4 
679-1 
679-2 
679-3 
679-4 
449-1 
449-2 
449-3 
449-4 
89-1 
89-2 
89-3 
89-4 
28-1 
28-2 
28-3 
28-4 
688-1 
688-2 
688-3 
688-4 
29-1 
29-2 
29-3 
29-4 
689-1 
689-2 
689-3 
689-4 
30-1 
30-2 
30-3 
30-4 
206-2 
206-4 
690-1 
690-2 
690-3 
690-4 
207-1 
207-2 
207-3 
207-4 
208-1 
208-2 
208-3 
208-4 
209-1 
209-2 
209-3 
209-4 
210-1 
210-2 
210-3 
210-4 
386-2 
386-4 
387-1 
387-2 
387-3 
387-4 
388-1 
388-2 
388-3 
388-4 
389-1 
389-2 
389-3 
389-4 
390-1 
390-2 
390-3 
390-4 
566-2 
566-4 
567-1 
567-2 
567-3 
567-4 
568-1 
568-2 
568-3 
568-4 
569-1 
569-2 
569-3 
569-4 
86-2 
86-4 
570-1 
570-2 
570-3 
570-4 
87-1 
87-2 
87-3 
87-4 
88-1 
88-2 
88-3 
88-4 
90-1 
90-2 
90-3 
90-4 
266-2 
266-4 
267-1 
267-2 
267-3 
267-4 
268-1 
268-2 
268-3 
268-4 
269-1 
269-2 
269-3 
269-4 
270-1 
270-2 
270-3 
270-4 
446-2 
446-4 
447-1 
447-2 
447-3 
447-4 
448-1 
448-2 
448-3 
448-4 
450-1 
450-2 
450-3 
450-4 
626-2 
626-4 
628-1 
628-2 
628-3 
628-4 
629-1 
629-2 
629-3 
629-4 
149-1 
149-2 
149-3 
149-4 
329-1 
329-2 
329-3 
329-4 
330-1 
330-2 
330-3 
330-4 
506-2 
506-4 
507-1 
507-2 
507-3 
507-4 
508-1 
508-2 
508-3 
508-4 
509-1 
509-2 
509-3 
509-4 
26-2 
26-4 
510-1 
510-2 
510-3 
510-4 
686-2 
686-4 
627-1 
627-2 
627-3 
627-4 
27-1 
27-2 
27-3 
27-4 
687-1 
687-2 
687-3 
687-4 
146-2 
146-4 
630-1 
630-2 
630-3 
630-4 
147-1 
147-2 
147-3 
147-4 
148-1 
148-2 
148-3 
148-4 
150-1 
150-2 
150-3 
150-4 
326-1 
326-2 
326-3 
326-4 
327-1 
327-2 
327-3 
327-4 
328-1 
328-2 
328-3 
328-4 
802-1 
802-2 
802-3 
802-4 
978-1 
978-2 
978-3 
978-4 
1102-1 
1102-2 
1102-3 
1102-4 
1040-1 
1040-2 
1040-3 
1040-4 
1041-1 
1041-2 
1041-3 
1041-4 
1042-1 
1042-2 
1042-3 
1042-4 
1043-1 
1043-2 
1043-3 
1043-4 
1044-1 
1044-3 
737-2 
737-4 
738-1 
738-2 
738-3 
738-4 
739-1 
739-2 
739-3 
739-4 
740-1 
740-2 
740-3 
740-4 
741-1 
741-2 
741-3 
741-4 
917-2 
917-4 
742-1 
742-2 
742-3 
742-4 
918-1 
918-2 
918-3 
918-4 
743-1 
743-2 
743-3 
743-4 
919-1 
919-2 
919-3 
919-4 
744-1 
744-3 
920-1 
920-2 
920-3 
920-4 
921-1 
921-2 
921-3 
921-4 
1097-2 
1097-4 
922-1 
922-2 
922-3 
922-4 
1098-1 
1098-2 
1098-3 
1098-4 
923-1 
923-2 
923-3 
923-4 
1099-1 
1099-2 
1099-3 
1099-4 
1100-1 
1100-2 
1100-3 
1100-4 
1101-1 
1101-2 
1101-3 
1101-4 
1103-1 
1103-2 
1103-3 
1103-4 
1104-1 
1104-3 
797-2 
797-4 
798-1 
798-2 
798-3 
798-4 
799-1 
799-2 
799-3 
799-4 
800-1 
800-2 
800-3 
800-4 
801-1 
801-2 
801-3 
801-4 
977-2 
977-4 
981-1 
981-2 
981-3 
981-4 
1157-1 
1157-2 
1157-3 
1157-4 
1161-3 
857-2 
857-4 
858-1 
858-2 
858-3 
858-4 
859-1 
859-2 
859-3 
859-4 
860-1 
860-2 
860-3 
860-4 
803-1 
803-2 
803-3 
803-4 
979-1 
979-2 
979-3 
979-4 
861-1 
861-2 
861-3 
861-4 
1037-1 
1037-2 
1037-3 
1037-4 
862-1 
862-2 
862-3 
862-4 
1038-1 
1038-2 
1038-3 
1038-4 
863-1 
863-2 
863-3 
863-4 
1039-1 
1039-2 
1039-3 
1039-4 
980-1 
980-2 
980-3 
980-4 
982-1 
982-2 
982-3 
982-4 
1158-1 
1158-2 
1158-3 
1158-4 
983-1 
983-2 
983-3 
983-4 
1159-1 
1159-2 
1159-3 
1159-4 
1160-4 
1162-1 
1162-2 
1162-3 
1162-4 
1163-1 
1163-2 
1163-3 
1163-4 
1161-1-3 
1161-1-4 
1161-2-2 
1161-4-1 
1161-4-3 
1160-1-1 
1160-2-3 
1160-2-4 
1160-3-2 
1160-3-4 
1161-1-1-1 
1161-1-1-2 
1161-1-1-3 
1161-1-1-4 
1161-1-2-1 
1161-1-2-2 
1161-1-2-3 
1161-1-2-4 
1161-2-1-1 
1161-2-1-2 
1161-2-1-3 
1161-2-1-4 
1161-2-3-1 
1161-2-3-2 
1161-2-3-3 
1161-2-3-4 
1161-2-4-1 
1161-2-4-2 
1161-2-4-3 
1161-2-4-4 
1161-4-2-1 
1161-4-2-2 
1161-4-2-3 
1161-4-2-4 
1161-4-4-1 
1161-4-4-2 
1161-4-4-3 
1161-4-4-4 
1160-1-2-1 
1160-1-2-2 
1160-1-2-3 
1160-1-2-4 
1160-1-3-1 
1160-1-3-2 
1160-1-3-3 
1160-1-3-4 
1160-1-4-1 
1160-1-4-2 
1160-1-4-3 
1160-1-4-4 
1160-2-1-1 
1160-2-1-2 
1160-2-1-3 
1160-2-1-4 
1160-2-2-1 
1160-2-2-2 
1160-2-2-3 
1160-2-2-4 
1160-3-1-1 
1160-3-1-2 
1160-3-1-3 
1160-3-1-4 
1160-3-3-1 
1160-3-3-2 
1160-3-3-3 
1160-3-3-4 
927-1 
927-2 
927-3 
927-4 
869-1 
869-2 
869-3 
869-4 
1045-1 
1045-2 
1045-3 
1045-4 
870-1 
870-2 
870-3 
870-4 
1046-1 
1046-2 
1046-3 
1046-4 
1047-1 
1047-2 
1047-3 
1047-4 
1048-1 
1048-2 
1048-3 
1048-4 
1049-1 
1049-2 
1049-3 
1049-4 
1050-1 
1050-2 
1050-3 
1050-4 
744-2 
744-4 
745-1 
745-2 
745-3 
745-4 
746-1 
746-2 
746-3 
746-4 
747-1 
747-2 
747-3 
747-4 
748-1 
748-2 
748-3 
748-4 
924-1 
924-2 
924-3 
924-4 
749-1 
749-2 
749-3 
749-4 
925-1 
925-2 
925-3 
925-4 
750-1 
750-2 
750-3 
750-4 
926-1 
926-2 
926-3 
926-4 
928-1 
928-2 
928-3 
928-4 
1104-2 
1104-4 
929-1 
929-2 
929-3 
929-4 
1105-1 
1105-2 
1105-3 
1105-4 
930-1 
930-2 
930-3 
930-4 
1106-1 
1106-2 
1106-3 
1106-4 
1107-1 
1107-2 
1107-3 
1107-4 
1108-1 
1108-2 
1108-3 
1108-4 
1109-1 
1109-2 
1109-3 
1109-4 
1110-1 
1110-2 
1110-3 
1110-4 
804-1 
804-2 
804-3 
804-4 
805-1 
805-2 
805-3 
805-4 
809-1 
809-2 
809-3 
809-4 
985-1 
985-2 
985-3 
985-4 
989-1 
989-2 
989-3 
989-4 
1165-1 
1165-2 
1165-3 
1165-4 
990-1 
990-2 
990-3 
990-4 
1166-1 
1166-2 
1166-3 
1166-4 
1167-1 
1167-2 
1167-3 
1167-4 
1168-1 
1168-2 
1168-3 
1168-4 
1169-1 
1169-2 
1169-3 
1169-4 
1170-1 
1170-2 
1170-3 
1170-4 
864-1 
864-2 
864-3 
864-4 
865-1 
865-2 
865-3 
865-4 
866-1 
866-2 
866-3 
866-4 
867-1 
867-2 
867-3 
867-4 
868-1 
868-2 
868-3 
868-4 
1044-2 
1044-4 
988-1 
988-2 
988-3 
988-4 
1164-1 
1164-2 
1164-3 
1164-4 
806-1 
806-2 
806-3 
806-4 
807-1 
807-2 
807-3 
807-4 
808-1 
808-2 
808-3 
808-4 
984-1 
984-2 
984-3 
984-4 
810-1 
810-2 
810-3 
810-4 
986-1 
986-2 
986-3 
986-4 
987-1 
987-2 
987-3 
987-4 
1684-1 
1684-2 
1684-3 
1684-4 
1324-1 
1324-2 
1324-3 
1324-4 
1265-1 
1265-2 
1265-3 
1265-4 
1441-1 
1441-2 
1441-3 
1441-4 
1442-1 
1442-2 
1442-3 
1442-4 
1443-1 
1443-2 
1443-3 
1443-4 
1444-1 
1444-2 
1444-3 
1444-4 
1445-1 
1445-2 
1445-3 
1445-4 
1621-1 
1621-2 
1621-3 
1621-4 
1446-1 
1446-3 
1622-1 
1622-2 
1622-3 
1622-4 
1623-1 
1623-2 
1623-3 
1623-4 
1624-1 
1624-2 
1624-3 
1624-4 
1625-1 
1625-2 
1625-3 
1625-4 
1626-1 
1626-3 
1321-1 
1321-2 
1321-3 
1321-4 
1322-1 
1322-2 
1322-3 
1322-4 
1323-1 
1323-2 
1323-3 
1323-4 
1325-1 
1325-2 
1325-3 
1325-4 
1501-1 
1501-2 
1501-3 
1501-4 
1326-1 
1326-3 
1502-1 
1502-2 
1502-3 
1502-4 
1503-1 
1503-2 
1503-3 
1503-4 
1504-1 
1504-2 
1504-3 
1504-4 
1505-1 
1505-2 
1505-3 
1505-4 
1681-1 
1681-2 
1681-3 
1681-4 
1506-1 
1506-3 
1682-1 
1682-2 
1682-3 
1682-4 
1683-1 
1683-2 
1683-3 
1683-4 
1201-1 
1201-2 
1201-3 
1201-4 
1685-1 
1685-2 
1685-3 
1685-4 
1203-1 
1203-2 
1203-3 
1203-4 
1205-1 
1205-2 
1205-3 
1205-4 
1381-1 
1381-2 
1381-3 
1381-4 
1384-1 
1384-2 
1384-3 
1384-4 
1385-1 
1385-2 
1385-3 
1385-4 
1561-1 
1561-2 
1561-3 
1561-4 
1386-1 
1386-3 
1562-1 
1562-2 
1562-3 
1562-4 
1563-1 
1563-2 
1563-3 
1563-4 
1564-1 
1564-2 
1564-3 
1564-4 
1565-1 
1565-2 
1565-3 
1565-4 
1741-1 
1741-2 
1741-3 
1741-4 
1744-1 
1744-2 
1744-3 
1744-4 
1261-1 
1261-2 
1261-3 
1261-4 
1745-1 
1745-2 
1745-3 
1745-4 
1262-1 
1262-2 
1262-3 
1262-4 
1746-1 
1746-3 
1263-1 
1263-2 
1263-3 
1263-4 
1264-1 
1264-2 
1264-3 
1264-4 
1204-1 
1204-2 
1204-3 
1204-4 
1202-1 
1202-2 
1202-3 
1202-4 
1686-1 
1686-3 
1206-1 
1206-3 
1382-1 
1382-2 
1382-3 
1382-4 
1383-1 
1383-2 
1383-3 
1383-4 
1566-1 
1566-3 
1742-1 
1742-2 
1742-3 
1742-4 
1743-1 
1743-2 
1743-3 
1743-4 
1509-1 
1509-2 
1509-3 
1509-4 
1508-1 
1508-2 
1508-3 
1508-4 
1749-1 
1749-2 
1749-3 
1749-4 
1266-1 
1266-2 
1266-3 
1266-4 
1750-1 
1750-2 
1750-4 
1267-1 
1267-2 
1267-3 
1267-4 
1751-1 
1751-2 
1751-3 
1751-4 
1268-1 
1268-2 
1268-3 
1268-4 
1269-1 
1269-2 
1269-3 
1269-4 
1270-1 
1270-2 
1270-3 
1270-4 
1446-2 
1446-4 
1271-1 
1271-2 
1271-3 
1271-4 
1447-1 
1447-2 
1447-3 
1447-4 
1448-1 
1448-2 
1448-3 
1448-4 
1449-1 
1449-2 
1449-3 
1449-4 
1450-1 
1450-2 
1450-3 
1450-4 
1626-2 
1626-4 
1451-1 
1451-2 
1451-3 
1451-4 
1627-1 
1627-2 
1627-3 
1627-4 
1628-1 
1628-2 
1628-3 
1628-4 
1629-1 
1629-2 
1629-3 
1629-4 
1630-1 
1630-2 
1630-3 
1630-4 
1631-1 
1631-2 
1631-3 
1631-4 
1326-2 
1326-4 
1327-1 
1327-2 
1327-3 
1327-4 
1328-1 
1328-2 
1328-3 
1328-4 
1329-1 
1329-2 
1329-3 
1329-4 
1330-1 
1330-2 
1330-3 
1330-4 
1506-2 
1506-4 
1331-1 
1331-2 
1331-3 
1331-4 
1507-1 
1507-2 
1507-3 
1507-4 
1209-1 
1209-2 
1209-3 
1209-4 
1210-1 
1210-2 
1210-3 
1210-4 
1386-2 
1386-4 
1388-1 
1388-2 
1388-3 
1388-4 
1389-1 
1389-2 
1389-3 
1389-4 
1569-1 
1569-2 
1569-3 
1569-4 
1570-1 
1570-2 
1570-3 
1570-4 
1746-2 
1746-4 
1571-1 
1571-2 
1571-3 
1571-4 
1747-1 
1747-2 
1747-3 
1747-4 
1748-1 
1748-2 
1748-3 
1748-4 
1510-1 
1510-2 
1510-3 
1510-4 
1686-2 
1686-4 
1511-1 
1511-3 
1511-4 
1687-1 
1687-2 
1687-3 
1687-4 
1688-1 
1688-2 
1688-3 
1688-4 
1689-1 
1689-2 
1689-3 
1689-4 
1206-2 
1206-4 
1690-1 
1690-2 
1690-3 
1690-4 
1207-1 
1207-2 
1207-3 
1207-4 
1691-1 
1691-2 
1691-3 
1691-4 
1208-1 
1208-2 
1208-3 
1208-4 
1211-1 
1211-3 
1387-1 
1387-2 
1387-3 
1387-4 
1390-1 
1390-2 
1390-3 
1390-4 
1566-2 
1566-4 
1391-1 
1391-2 
1391-3 
1391-4 
1567-1 
1567-2 
1567-3 
1567-4 
1568-1 
1568-2 
1568-3 
1568-4 
1334-1 
1334-2 
1334-3 
1334-4 
1634-1 
1634-2 
1634-3 
1634-4 
1397-1 
1397-3 
1573-1 
1573-2 
1573-3 
1573-4 
1574-1 
1574-2 
1574-3 
1574-4 
1575-1 
1575-2 
1575-3 
1575-4 
1576-1 
1576-2 
1576-3 
1576-4 
1752-1 
1752-2 
1752-3 
1752-4 
1577-3 
1753-1 
1753-2 
1753-3 
1753-4 
1754-1 
1754-2 
1754-3 
1754-4 
1755-1 
1755-2 
1755-3 
1755-4 
1272-1 
1272-2 
1272-3 
1272-4 
1756-1 
1756-2 
1756-3 
1756-4 
1273-1 
1273-2 
1273-3 
1273-4 
1757-1 
1757-3 
1274-1 
1274-2 
1274-3 
1274-4 
1275-1 
1275-2 
1275-3 
1275-4 
1276-1 
1276-2 
1276-3 
1276-4 
1452-1 
1452-2 
1452-3 
1452-4 
1453-1 
1453-2 
1453-3 
1453-4 
1454-1 
1454-2 
1454-3 
1454-4 
1455-1 
1455-2 
1455-3 
1455-4 
1456-1 
1456-2 
1456-3 
1456-4 
1632-1 
1632-2 
1632-3 
1632-4 
1457-1 
1457-3 
1633-1 
1633-2 
1633-3 
1633-4 
1635-1 
1635-2 
1635-3 
1635-4 
1636-1 
1636-2 
1636-3 
1636-4 
1637-1 
1637-3 
1332-1 
1332-2 
1332-3 
1332-4 
1333-1 
1333-2 
1333-3 
1333-4 
1335-1 
1335-2 
1335-3 
1335-4 
1511-2 
1336-1 
1336-2 
1336-3 
1336-4 
1512-1 
1512-2 
1512-3 
1512-4 
1337-1 
1337-3 
1513-1 
1513-2 
1513-3 
1513-4 
1517-1 
1517-3 
1693-1 
1693-2 
1693-3 
1693-4 
1694-1 
1694-2 
1694-3 
1694-4 
1212-1 
1212-2 
1212-3 
1212-4 
1696-1 
1696-2 
1696-3 
1696-4 
1213-1 
1213-2 
1213-3 
1213-4 
1215-1 
1215-2 
1215-3 
1215-4 
1216-1 
1216-2 
1216-3 
1216-4 
1392-1 
1392-2 
1392-3 
1392-4 
1217-1 
1217-3 
1393-1 
1393-2 
1393-3 
1393-4 
1394-1 
1394-2 
1394-3 
1394-4 
1395-1 
1395-2 
1395-3 
1395-4 
1396-1 
1396-2 
1396-3 
1396-4 
1572-1 
1572-2 
1572-3 
1572-4 
1211-2 
1211-4 
1695-1 
1695-2 
1695-3 
1695-4 
1514-1 
1514-2 
1514-3 
1514-4 
1515-1 
1515-2 
1515-3 
1515-4 
1516-1 
1516-2 
1516-3 
1516-4 
1692-1 
1692-2 
1692-3 
1692-4 
1214-1 
1214-2 
1214-3 
1214-4 
1863-1 
1863-2 
1863-3 
1863-4 
2163-1 
2163-2 
2163-3 
2163-4 
1925-1 
1925-2 
1925-3 
1925-4 
2101-1 
2101-2 
2101-3 
2101-4 
1926-1 
1926-3 
2102-1 
2102-2 
2102-3 
2102-4 
2103-1 
2103-2 
2103-3 
2103-4 
2104-1 
2104-2 
2104-3 
2104-4 
2105-1 
2105-2 
2105-3 
2105-4 
2281-1 
2281-2 
2281-3 
2281-4 
2106-1 
2106-3 
2282-1 
2282-2 
2282-3 
2282-4 
2283-1 
2283-2 
2283-3 
2283-4 
2284-1 
2284-2 
2284-3 
2284-4 
1801-1 
1801-2 
1801-3 
1801-4 
2285-1 
2285-2 
2285-3 
2285-4 
1802-1 
1802-2 
1802-3 
1802-4 
2286-1 
2286-3 
1803-1 
1803-2 
1803-3 
1803-4 
1804-1 
1804-2 
1804-3 
1804-4 
1805-1 
1805-2 
1805-3 
1805-4 
1981-1 
1981-2 
1981-3 
1981-4 
1806-1 
1806-3 
1982-1 
1982-2 
1982-3 
1982-4 
1983-1 
1983-2 
1983-3 
1983-4 
1984-1 
1984-2 
1984-3 
1984-4 
1985-1 
1985-2 
1985-3 
1985-4 
2161-1 
2161-2 
2161-3 
2161-4 
1986-1 
1986-3 
2162-1 
2162-2 
2162-3 
2162-4 
2164-1 
2164-2 
2164-3 
2164-4 
2165-1 
2165-2 
2165-3 
2165-4 
2341-1 
2341-2 
2341-3 
2341-4 
2166-1 
2166-3 
2342-1 
2342-2 
2342-3 
2342-4 
2343-1 
2343-2 
2343-3 
2343-4 
2344-1 
2344-2 
2344-3 
2344-4 
1861-1 
1861-2 
1861-3 
1861-4 
2345-1 
2345-2 
2345-3 
2345-4 
1862-1 
1862-2 
1862-3 
1862-4 
2346-1 
2346-3 
1865-1 
1865-2 
1865-3 
1865-4 
2041-1 
2041-2 
2041-3 
2041-4 
2045-1 
2045-2 
2045-3 
2045-4 
2221-1 
2221-2 
2221-3 
2221-4 
2046-1 
2046-3 
2222-1 
2222-2 
2222-3 
2222-4 
2224-1 
2224-2 
2224-3 
2224-4 
2225-1 
2225-2 
2225-3 
2225-4 
1922-1 
1922-2 
1922-3 
1922-4 
1923-1 
1923-2 
1923-3 
1923-4 
1864-1 
1864-2 
1864-3 
1864-4 
1924-1 
1924-2 
1924-3 
1924-4 
1866-1 
1866-3 
2042-1 
2042-2 
2042-3 
2042-4 
2043-1 
2043-2 
2043-3 
2043-4 
2044-1 
2044-2 
2044-3 
2044-4 
2223-1 
2223-2 
2223-3 
2223-4 
1921-1 
1921-2 
1921-3 
1921-4 
2348-1 
2348-2 
2348-3 
2348-4 
1988-1 
1988-2 
1988-3 
1988-4 
1750-3 
1926-2 
1926-4 
1927-1 
1927-2 
1927-3 
1927-4 
1928-1 
1928-2 
1928-3 
1928-4 
1929-1 
1929-2 
1929-3 
1929-4 
1930-1 
1930-2 
1930-3 
1930-4 
2106-2 
2106-4 
1931-1 
1931-2 
1931-3 
1931-4 
2107-1 
2107-2 
2107-3 
2107-4 
2108-1 
2108-2 
2108-3 
2108-4 
2109-1 
2109-2 
2109-3 
2109-4 
2110-1 
2110-2 
2110-3 
2110-4 
2286-2 
2286-4 
2111-1 
2111-3 
2287-1 
2287-2 
2287-3 
2287-4 
2288-1 
2288-2 
2288-3 
2288-4 
2289-1 
2289-2 
2289-3 
2289-4 
1806-2 
1806-4 
2290-1 
2290-2 
2290-3 
2290-4 
1807-1 
1807-2 
1807-3 
1807-4 
2291-1 
2291-2 
2291-3 
2291-4 
1808-1 
1808-2 
1808-3 
1808-4 
1809-1 
1809-2 
1809-3 
1809-4 
1810-1 
1810-2 
1810-3 
1810-4 
1986-2 
1986-4 
1811-1 
1811-2 
1811-3 
1811-4 
1987-1 
1987-2 
1987-3 
1987-4 
1989-1 
1989-2 
1989-3 
1989-4 
1990-1 
1990-2 
1990-3 
1990-4 
2166-2 
2166-4 
1991-1 
1991-2 
1991-3 
1991-4 
2167-1 
2167-2 
2167-3 
2167-4 
2168-1 
2168-2 
2168-3 
2168-4 
2169-1 
2169-2 
2169-3 
2169-4 
2170-1 
2170-2 
2170-3 
2170-4 
2346-2 
2346-4 
2171-1 
2171-3 
2347-1 
2347-2 
2347-3 
2347-4 
2349-1 
2349-2 
2349-3 
2349-4 
1869-1 
1869-2 
1869-3 
1869-4 
1870-1 
1870-2 
1870-3 
1870-4 
2046-2 
2046-4 
1871-1 
1871-2 
1871-3 
1871-4 
2047-1 
2047-2 
2047-3 
2047-4 
2048-1 
2048-2 
2048-3 
2048-4 
2049-1 
2049-2 
2049-3 
2049-4 
2050-1 
2050-2 
2050-3 
2050-4 
2226-1 
2226-2 
2226-3 
2226-4 
2228-1 
2228-2 
2228-3 
2228-4 
2229-1 
2229-2 
2229-3 
2229-4 
2230-1 
2230-2 
2230-3 
2230-4 
2231-1 
2231-2 
2231-3 
2231-4 
1868-1 
1868-2 
1868-3 
1868-4 
1866-2 
1866-4 
2350-1 
2350-2 
2350-3 
2350-4 
1867-1 
1867-2 
1867-3 
1867-4 
2351-1 
2351-2 
2351-3 
2351-4 
2051-1 
2051-2 
2051-3 
2051-4 
2227-1 
2227-2 
2227-3 
2227-4 
1997-1 
1997-3 
2173-1 
2173-2 
2173-3 
2173-4 
2113-1 
2113-2 
2113-3 
2113-4 
2057-1 
2057-3 
2233-1 
2233-2 
2233-3 
2233-4 
2234-1 
2234-2 
2234-3 
2234-4 
2235-1 
2235-2 
2235-3 
2235-4 
2236-1 
2236-2 
2236-3 
2236-4 
2237-1 
2237-3 
1932-1 
1932-2 
1932-3 
1932-4 
1933-1 
1933-2 
1933-3 
1933-4 
1934-1 
1934-2 
1934-3 
1934-4 
1935-1 
1935-2 
1935-3 
1935-4 
2111-2 
2111-4 
1936-1 
1936-2 
1936-3 
1936-4 
2112-1 
2112-2 
2112-3 
2112-4 
2114-1 
2114-2 
2114-3 
2114-4 
2115-1 
2115-2 
2115-3 
2115-4 
2116-1 
2116-2 
2116-3 
2116-4 
2292-1 
2292-2 
2292-3 
2292-4 
2117-1 
2117-3 
2293-1 
2293-2 
2293-3 
2293-4 
2294-1 
2294-2 
2294-3 
2294-4 
2295-1 
2295-2 
2295-3 
2295-4 
1812-1 
1812-2 
1812-3 
1812-4 
2296-1 
2296-2 
2296-3 
2296-4 
1813-1 
1813-2 
1813-3 
1813-4 
2297-1 
2297-3 
1814-1 
1814-2 
1814-3 
1814-4 
1815-1 
1815-2 
1815-3 
1815-4 
1816-1 
1816-2 
1816-3 
1816-4 
1992-1 
1992-2 
1992-3 
1992-4 
1993-1 
1993-2 
1993-3 
1993-4 
1994-1 
1994-2 
1994-3 
1994-4 
1995-1 
1995-2 
1995-3 
1995-4 
2171-2 
2171-4 
1996-1 
1996-2 
1996-3 
1996-4 
2172-1 
2172-2 
2172-3 
2172-4 
2177-1 
2177-3 
2353-1 
2353-2 
2353-3 
2353-4 
2354-1 
2354-2 
2354-3 
2354-4 
1872-1 
1872-2 
1872-3 
1872-4 
2356-1 
2356-2 
2356-3 
2356-4 
1873-1 
1873-2 
1873-3 
1873-4 
1876-1 
1876-2 
1876-3 
1876-4 
2052-1 
2052-2 
2052-3 
2052-4 
2054-1 
2054-2 
2054-3 
2054-4 
2055-1 
2055-2 
2055-3 
2055-4 
2174-1 
2174-2 
2174-3 
2174-4 
2056-1 
2056-2 
2056-3 
2056-4 
2232-1 
2232-2 
2232-3 
2232-4 
2175-1 
2175-2 
2175-3 
2175-4 
2176-1 
2176-2 
2176-3 
2176-4 
2352-1 
2352-2 
2352-3 
2352-4 
2355-1 
2355-2 
2355-3 
2355-4 
1874-1 
1874-2 
1874-3 
1874-4 
1875-1 
1875-2 
1875-3 
1875-4 
1877-1 
1877-3 
2053-1 
2053-2 
2053-3 
2053-4 
1338-1 
1338-2 
1338-3 
1338-4 
1278-1 
1278-2 
1278-3 
1278-4 
1221-1 
1397-2 
1397-4 
1222-1 
1222-2 
1222-3 
1222-4 
1398-1 
1398-2 
1398-3 
1398-4 
1223-1 
1223-2 
1223-3 
1223-4 
1399-1 
1399-2 
1399-3 
1399-4 
1224-1 
1224-2 
1224-3 
1224-4 
1400-1 
1400-2 
1400-3 
1400-4 
1225-1 
1225-2 
1225-3 
1225-4 
1401-1 
1401-2 
1401-3 
1401-4 
1226-1 
1226-3 
1402-1 
1402-2 
1402-3 
1402-4 
1403-1 
1403-2 
1403-3 
1403-4 
1404-1 
1404-2 
1404-3 
1404-4 
1580-1 
1405-1 
1405-2 
1405-3 
1405-4 
1406-1 
1406-3 
1277-1 
1277-2 
1277-3 
1277-4 
1279-1 
1279-2 
1279-3 
1279-4 
1280-1 
1280-2 
1280-3 
1280-4 
1281-1 
1281-2 
1281-3 
1281-4 
1457-2 
1457-4 
1282-1 
1282-2 
1282-3 
1282-4 
1458-1 
1458-2 
1458-3 
1458-4 
1283-1 
1283-2 
1283-3 
1283-4 
1459-1 
1459-2 
1459-3 
1459-4 
1284-1 
1284-2 
1284-3 
1284-4 
1460-1 
1460-2 
1460-3 
1460-4 
1285-1 
1285-2 
1285-3 
1285-4 
1461-1 
1461-2 
1461-3 
1461-4 
1286-1 
1286-3 
1462-1 
1462-2 
1462-3 
1462-4 
1463-1 
1463-2 
1463-3 
1463-4 
1464-1 
1464-2 
1464-3 
1464-4 
1465-1 
1465-2 
1465-3 
1465-4 
1466-1 
1466-3 
1337-2 
1337-4 
1340-1 
1340-2 
1340-3 
1340-4 
1341-1 
1341-2 
1341-3 
1341-4 
1517-2 
1517-4 
1342-1 
1342-2 
1342-3 
1342-4 
1518-1 
1518-2 
1518-3 
1518-4 
1344-1 
1344-2 
1344-3 
1344-4 
1520-1 
1520-2 
1520-3 
1520-4 
1345-1 
1345-2 
1345-3 
1345-4 
1521-1 
1521-2 
1521-3 
1521-4 
1524-1 
1524-2 
1524-3 
1524-4 
1217-2 
1217-4 
1525-1 
1525-2 
1525-3 
1525-4 
1218-1 
1218-2 
1218-3 
1218-4 
1526-1 
1526-3 
1219-1 
1219-2 
1219-3 
1219-4 
1220-2 
1339-1 
1339-2 
1339-3 
1339-4 
1343-1 
1343-2 
1343-3 
1343-4 
1519-1 
1519-2 
1519-3 
1519-4 
1346-1 
1346-3 
1522-1 
1522-2 
1522-3 
1522-4 
1523-1 
1523-2 
1523-3 
1523-4 
1221-2-1 
1221-2-3 
1221-3-1 
1221-3-2 
1221-4-4 
1220-1-2 
1220-1-4 
1220-3-3 
1220-4-1 