ITEM: TIMESTEP
890000
ITEM: NUMBER OF CELLS
40
ITEM: BOX BOUNDS so oo pp
-0.1 0.2
-0.1 0.1
-0.5 0.5
ITEM: CELLS c_dens[1] 
0.00138075 
0.00152945 
0.00151883 
0.00149758 
0.00147634 
0.00155069 
0.00156131 
0.0014551 
0.00149758 
0.00157193 
0.0014551 
0.0015082 
0.00154007 
0.00151883 
0.00146572 
0.00159317 
0.00139137 
0.00148696 
0.00134889 
0.00149758 
0.00159317 
0.00147634 
0.00149758 
0.00154007 
0.00156131 
0.00149758 
0.0014551 
0.00143386 
0.00138075 
0.0014551 
0.00156131 
0.00157193 
0.00155069 
0.00143386 
0.00137013 
0.00152945 
0.00155069 
0.0014551 
0.00168876 
0.00146572 
