ITEM: TIMESTEP
0
ITEM: NUMBER OF CELLS
40
ITEM: BOX BOUNDS so oo pp
-0.1 0.2
-0.1 0.1
-0.5 0.5
ITEM: CELLS c_dens[1] 
0.00111522 
0.00111522 
0.00111522 
0.00112584 
0.00111522 
0.00111522 
0.00111522 
0.00111522 
0.00112584 
0.00111522 
0.00111522 
0.00111522 
0.00111522 
0.00112584 
0.00112584 
0.0011046 
0.00112584 
0.00111522 
0.0011046 
0.00111522 
0.0011046 
0.00112584 
0.00112584 
0.00111522 
0.00111522 
0.00112584 
0.00111522 
0.0011046 
0.00111522 
0.00111522 
0.00111522 
0.00112584 
0.00111522 
0.00111522 
0.00111522 
0.00112584 
0.00111522 
0.00111522 
0.00112584 
0.00111522 
