ITEM: TIMESTEP
2600000
ITEM: NUMBER OF CELLS
1000
ITEM: BOX BOUNDS ss rr pp
0 0.004
0 0.01
-0.5 0.5
ITEM: CELLS f_temp1[*] 
296.114 
304.808 
316.184 
323.193 
312.781 
314.751 
299.301 
301.883 
309.846 
298.963 
314.001 
289.194 
283.111 
289.209 
318.837 
290.107 
300.678 
334.209 
290.326 
312.118 
307.884 
306.637 
296.728 
282.176 
318.829 
299.603 
321.976 
306.627 
299.499 
340.664 
290.36 
284.569 
334.227 
321.752 
291.833 
290.463 
296.246 
303.697 
324.019 
295.239 
310.76 
284.751 
297.822 
290.753 
313.319 
292.364 
344.07 
312.144 
330.007 
322.48 
314.984 
307.095 
267.495 
290.575 
299.013 
297.041 
274.304 
319.182 
255.218 
302.19 
305.254 
281.159 
285.028 
298.908 
293.912 
273.303 
296.201 
309.953 
356.681 
361.398 
299.558 
298.739 
280.465 
323.673 
291.891 
277.729 
336.092 
365.912 
340.646 
319.783 
339.325 
339.257 
331.165 
313.679 
360.584 
302.77 
329.515 
354.424 
349.216 
321.243 
346.91 
307.454 
339.193 
327.234 
315.305 
324.133 
351.527 
328.697 
343.027 
319.102 
326.103 
316.042 
299.501 
335.154 
321.063 
314.218 
356.561 
347.497 
334.467 
341.315 
331.902 
327.965 
317.274 
374.795 
309.772 
386.836 
371.647 
362.918 
338.175 
337.961 
317.318 
297.926 
327.314 
334.597 
330.324 
313.287 
310.201 
320.825 
391.376 
367.511 
300.965 
342.863 
317.339 
351.491 
331.67 
342.263 
368.68 
352.7 
340.5 
343.424 
354.875 
374.114 
324.317 
326.429 
322.62 
396.874 
317.013 
339.213 
329.591 
344.613 
342.25 
331.046 
296.84 
287.053 
341.275 
339.643 
314.943 
350.476 
352.598 
341.281 
344.958 
372.596 
318.942 
319.285 
335.1 
346.349 
350.402 
376.683 
343.468 
370.358 
372.503 
329.489 
380.734 
358.514 
340.165 
329.138 
311.181 
361.515 
342.053 
303.507 
325.639 
330.459 
326.582 
333.024 
316.162 
312.306 
358.474 
343.306 
333.367 
331.622 
348.038 
323.325 
306.664 
329.08 
318.684 
325.825 
389.623 
326.328 
336.393 
365.193 
268.43 
326.48 
333.433 
314.138 
338.632 
343.887 
358.496 
359.259 
347.666 
355.396 
309.983 
314.675 
324.614 
356.176 
378.035 
355.263 
346.291 
334.834 
359.107 
384.139 
324.266 
355.59 
336.45 
301.568 
356.626 
296.254 
400.939 
363.539 
346.443 
362.765 
353.89 
326.866 
315.368 
380.43 
333.846 
364.625 
306.185 
344.728 
363.087 
342.399 
334.348 
349.057 
371.569 
344.888 
354.088 
347.025 
355.253 
379.427 
371.354 
355.545 
293.558 
340.465 
377.568 
342.367 
386.966 
385.416 
344.34 
353.69 
358.621 
366.952 
303.271 
316.623 
376.148 
345.518 
332.418 
340.755 
308.349 
348.561 
388.783 
339.405 
345.067 
389.446 
355.906 
369.828 
386.07 
407.895 
388.373 
407.202 
370.588 
374.971 
389.077 
366.328 
363.686 
387.361 
396.146 
406.565 
385.298 
387.633 
370.179 
405.374 
357.042 
361.736 
362.678 
366.204 
378.065 
372.342 
389.202 
357.395 
334.036 
398.817 
346.585 
380.218 
321.465 
385.544 
333.859 
371.737 
396.553 
355.299 
366.204 
358.209 
375.976 
361.632 
384.215 
374.457 
346.832 
358.919 
400.762 
369.019 
370.8 
364.974 
432.987 
356.385 
368.437 
357.175 
370.705 
384.313 
363.536 
347.292 
355.82 
365.383 
394.777 
374.34 
388.782 
377.261 
414.133 
330.575 
396.889 
367.657 
386.57 
324.704 
368.141 
337.092 
380.888 
376.86 
362.809 
354.799 
367.521 
376.723 
394.657 
353.856 
364.591 
349.386 
368.223 
420.133 
360.554 
392.395 
422.926 
383.843 
372.902 
400.361 
390.097 
401.407 
378.508 
440.352 
371.66 
386.103 
334.686 
399.964 
376.046 
370.831 
378.812 
371.534 
345.294 
390.447 
405.704 
409.077 
363.8 
327.689 
406.551 
367.343 
391.815 
331.414 
388.853 
421.473 
406.82 
375.655 
394.778 
357.761 
357.409 
416.4 
399.621 
399.557 
350.244 
363.472 
383.225 
418.133 
423.831 
389.901 
405.113 
379.865 
376.65 
369.508 
404.124 
423.429 
376.566 
399.076 
403.497 
363.145 
402.941 
341.632 
364.279 
370.174 
391.276 
389.779 
366.717 
361.17 
365.469 
390.501 
360.069 
378.371 
399.229 
419.256 
374.511 
391.265 
354.994 
379.27 
412.353 
352.117 
422.533 
433.178 
393.229 
366.678 
423.006 
445.142 
394.183 
417.6 
483.869 
368.836 
425.087 
462.838 
393.373 
427.029 
417.433 
384.307 
381.877 
410.949 
407.245 
439.212 
470.007 
401.732 
468.224 
400.617 
350.983 
420.287 
484.729 
398.209 
404.002 
445.053 
430.371 
436.886 
397.9 
397.533 
421.149 
451.127 
433.29 
413.318 
469.259 
437.03 
441.456 
382.672 
483.954 
466.302 
510.356 
427.777 
462.751 
480.702 
493.01 
424.679 
490.801 
492.632 
472.028 
446.395 
461.612 
484.999 
443.487 
419.002 
430.963 
509.474 
499.443 
437.112 
459.232 
412.752 
486.958 
473.672 
373.317 
481.599 
407.284 
403.219 
460.411 
434.397 
445.639 
471.579 
514.902 
417.727 
484.381 
401.023 
475.324 
470.74 
482.795 
460.777 
415.277 
488.789 
395.241 
364.944 
407.75 
406.955 
399.493 
441.359 
426.5 
434.657 
436.886 
443.535 
449.386 
411.984 
427.279 
470.997 
443.317 
400.758 
432.153 
419.464 
398.485 
380.444 
471.372 
415.601 
392.558 
426.275 
469.642 
447.272 
427.364 
460.951 
409.94 
452.592 
401.818 
432.005 
448.505 
395.396 
518.666 
401.431 
397.179 
448.565 
469.18 
403.026 
399.878 
420.162 
431.817 
418.558 
385.058 
402.532 
390.243 
437.499 
438.158 
417.58 
426.795 
423.457 
416.762 
427.544 
411.515 
407.682 
436.105 
401.426 
478.219 
448.509 
397.05 
423.74 
417.074 
429.215 
418.239 
451.732 
419.04 
379.884 
423.208 
389.409 
453.471 
410.569 
421.49 
422.142 
392.767 
403.926 
410.252 
389.345 
442.955 
416.504 
402.065 
462.309 
403.959 
402.904 
383.372 
477.697 
388.913 
476.59 
422.622 
436.945 
404.21 
445.355 
441.746 
429.684 
452.312 
502.473 
395.879 
461.891 
467.504 
450.712 
512.598 
501.289 
439.33 
392.59 
429.688 
415.743 
396.821 
455.382 
475.894 
434.659 
413.9 
425.092 
445.482 
443.623 
431.261 
448.331 
503.9 
390.829 
379.021 
407.538 
441.229 
425.906 
462.512 
450.936 
422.964 
410.666 
422.79 
450.908 
426.238 
459.096 
463.975 
444.335 
462.604 
403.097 
444.601 
421.997 
456.42 
433.734 
461.819 
418.304 
463.093 
449.744 
459.784 
403.026 
400.005 
420.684 
411.74 
426.973 
424.321 
421.234 
416.602 
433.761 
417.128 
392.63 
393.717 
392.894 
383.291 
408.568 
352.348 
429.97 
399.767 
413.944 
419.114 
497.203 
431.088 
467.875 
463.55 
438.1 
423.384 
447.816 
448.9 
448.517 
508.691 
449.832 
417.899 
427.014 
484.016 
387.499 
430.641 
393.12 
409.306 
442.038 
440.938 
456.415 
507.645 
452.979 
474.779 
444.865 
461.746 
429.17 
514.703 
415.876 
486.646 
481.933 
405.503 
462.383 
485.654 
450.545 
500.397 
455.643 
484.397 
450.529 
427.798 
451.106 
443.861 
416.642 
434.02 
467.183 
456.894 
419.246 
502.794 
440.884 
402.248 
470.957 
469.71 
421.323 
416.178 
423.319 
489.262 
449.903 
464.388 
427.076 
404.07 
514.539 
407.736 
489.298 
457.555 
477.352 
474.699 
458.641 
440.031 
452.442 
490.38 
426.372 
400.391 
476.202 
482.568 
455.858 
450.709 
450.386 
421.247 
439.25 
458.105 
411.682 
505.536 
455.73 
404.813 
416.639 
461.983 
464.582 
406.016 
506.24 
388.393 
407.446 
404.067 
401.091 
413.572 
423.163 
456.66 
437.578 
394.891 
469.879 
464.378 
515.203 
403.236 
412.215 
427.554 
417.034 
429.964 
488.666 
477.766 
523.694 
444.378 
355.64 
426.086 
414.277 
404.05 
448.642 
503.281 
476.506 
475.577 
526.129 
432.754 
427.25 
476.884 
402.36 
464.446 
429.305 
472.252 
507.545 
423.053 
472.21 
438.036 
508.199 
474.433 
475.445 
489.477 
450.47 
509.256 
529.058 
493.969 
452.534 
432.275 
453.938 
485.915 
446.843 
512.341 
538.945 
440.762 
443.208 
507.418 
440.899 
459.513 
458.057 
437.963 
465.525 
456.303 
503.355 
496.883 
519.401 
438.607 
566.531 
484.888 
486.417 
477.389 
511.28 
552.934 
559.361 
529.118 
439.465 
487.677 
458.802 
514.414 
488.935 
463.607 
513.618 
524.674 
460.907 
433.834 
476.565 
480.784 
515.067 
490.983 
464.286 
477.475 
433.605 
498.906 
510.312 
466.445 
505.052 
454.303 
477.38 
501.763 
482.733 
462.495 
456.154 
503.38 
442.423 
539 
462.195 
528.172 
462.065 
541.069 
484.005 
515.286 
471.071 
469.444 
489.4 
533.574 
514.362 
522.789 
494.28 
521.36 
463.643 
505.035 
428.303 
476.919 
463.299 
438.504 
471.551 
451.348 
464.71 
403.095 
438.918 
505.105 
458.205 
441.525 
444.312 
437.058 
450.521 
524.985 
465.454 
489.673 
410.681 
479.293 
497.741 
503.785 
470.196 
469.422 
502.791 
453.373 
492.852 
380.278 
451.447 
451.427 
416.777 
415.715 
460.013 
485.937 
445.021 
498.06 
432.398 
562.905 
493.462 
456.011 
421.146 
503.276 
502.633 
456.775 
456.22 
523.933 
477.945 
422.921 
482.591 
494.344 
499 
394.074 
492.147 
433.076 
519.706 
536.119 
481.901 
510.057 
481.165 
466.368 
448.574 
455.785 
514.758 
535.481 
431.977 
572.19 
461.25 
507.321 
600.333 
471.491 
533.34 
529.968 
420.148 
503.83 
509.187 
456.27 
521.303 
493.746 
492.875 
517.98 
501.975 
529.824 
495.177 
554.545 
532.556 
519.852 
506.229 
525.905 
474.069 
459.272 
462.088 
470.536 
508.675 
485.335 
544.54 
474.853 
509.035 
506.653 
478 
491.577 
525.494 
446.641 
460.088 
458.467 
474.59 
476.922 
460.914 
431.125 
487.945 
439.055 
520.221 
481.826 
478.678 
