ITEM: TIMESTEP
2700000
ITEM: NUMBER OF CELLS
1000
ITEM: BOX BOUNDS ss rr pp
0 0.004
0 0.01
-0.5 0.5
ITEM: CELLS f_temp1[*] 
324.27 
314.627 
325.262 
308.35 
295.964 
235.92 
313.935 
333.14 
309.278 
274.546 
318.821 
288.831 
316.682 
315.241 
320.451 
308.832 
324.133 
303.643 
321.687 
297.635 
278.191 
274.147 
317.404 
317.204 
308.682 
316.768 
309.356 
309.546 
323.415 
331.202 
294.917 
289.179 
319.212 
332.434 
287.229 
314.354 
319.625 
319.732 
332.144 
304.761 
323.337 
320.099 
307.126 
329.557 
283.435 
314.686 
344.11 
325.274 
310.281 
323.13 
288.237 
302.623 
340.348 
296.186 
324.315 
315.367 
301.277 
305.627 
271.37 
347.581 
311.292 
309.353 
318.836 
328.269 
327.764 
344.695 
322.311 
297.477 
337.895 
331.642 
267.568 
313.585 
320.299 
338.652 
344.022 
305.556 
329.951 
335.833 
327.742 
370.217 
336.58 
313.489 
343.277 
350.161 
323.23 
361.378 
336.92 
336.541 
292.397 
319.351 
309.876 
286.968 
299.38 
293.748 
282.065 
294.57 
310.44 
290.297 
277.99 
338.534 
306.127 
305.726 
314.788 
304.451 
369.807 
326.839 
368.565 
291.335 
351.706 
307.477 
357.559 
279.136 
330.756 
327.316 
369.873 
335.276 
328.791 
317.294 
296.237 
306.819 
331.807 
348.309 
331.002 
327.132 
335.845 
337.132 
311.832 
374.75 
343.578 
355.565 
326.507 
332.117 
321.847 
362.804 
337.224 
308.179 
348.419 
317.722 
321.137 
328.359 
309.73 
349.439 
295.441 
281.82 
349.611 
360.874 
349.216 
297.946 
330.772 
325.262 
311.926 
313.681 
344.739 
316.766 
327.265 
339.724 
323.252 
331.859 
330.613 
322.547 
332.552 
349.424 
361.928 
324.476 
353.395 
326.997 
311.886 
335.291 
346.332 
303.225 
300.313 
318.219 
293.589 
342.484 
296.06 
353.797 
286.886 
294.763 
337.768 
313.002 
329.052 
362.397 
291.358 
334.473 
348.043 
350.456 
308.492 
332.471 
362.523 
329.204 
363.616 
369.514 
320.807 
350.013 
333.924 
348.434 
335.142 
337.478 
321.989 
347.804 
341.061 
377.562 
343.364 
321.41 
327.665 
347.43 
295.952 
330.653 
315.229 
360.585 
339.495 
365.025 
340.708 
398.482 
360.547 
369.184 
363.46 
372.032 
375.222 
405.444 
412.756 
348.596 
318.496 
344.247 
358.924 
316.596 
326.461 
350.929 
367.832 
304.596 
375.374 
363.248 
361.275 
394.085 
369.685 
402.278 
333.424 
333.242 
333.58 
348.284 
356.41 
370.887 
352.404 
328.716 
353.127 
303.809 
361.914 
403.217 
346.065 
377.834 
372.89 
411.454 
324.376 
317.274 
340.227 
323.185 
349.201 
338.963 
365.162 
385.123 
360.091 
380.64 
325.374 
351.55 
375.238 
320.227 
304.268 
313.275 
323.353 
354.287 
347.84 
337.491 
358.032 
346.699 
355.912 
352.668 
342.032 
365.356 
362.333 
331.017 
317.359 
337.332 
313.385 
368.339 
343.737 
301.165 
327.308 
376.903 
354.75 
346.403 
379.86 
340.132 
381.111 
349.431 
376.81 
416.285 
370.152 
382.286 
385.351 
387.569 
384.439 
381.242 
394.315 
362.787 
358.267 
355.566 
373.49 
324.995 
369.328 
402.612 
410.253 
378.048 
449.029 
420.773 
428.648 
368.205 
391.579 
367.795 
398.292 
401.094 
365.802 
379.93 
369.636 
387.921 
381.377 
370.902 
357.219 
357.13 
376.962 
374.486 
372.283 
338.614 
380.558 
350.078 
386.149 
355.476 
355.47 
350.583 
333.333 
419.241 
350.127 
381.446 
383.375 
388.422 
413.872 
394.652 
345.2 
415.612 
325.304 
428.609 
405.854 
384.756 
395.775 
343.183 
440.844 
373.414 
394.627 
357.947 
381.504 
442.467 
425.338 
389.856 
394.32 
410.98 
398.717 
412.447 
396.228 
410.012 
366.935 
349.01 
330.291 
399.775 
394.422 
370.664 
370.15 
412.95 
402.892 
403.716 
365.525 
371.624 
413.573 
405.375 
349.408 
399.408 
376.636 
362.989 
413.738 
390.468 
383.398 
364.403 
381.163 
392.247 
379.818 
391.777 
452.481 
387.66 
404.8 
411.083 
387.33 
396.924 
329.188 
381.32 
337.309 
381.705 
358.745 
348.449 
391.061 
348.999 
442.981 
419.311 
398.092 
363.558 
431.369 
388.706 
418.19 
426.457 
425.093 
387.767 
369.009 
382.493 
403.742 
415.481 
419.217 
392.46 
411.282 
406.232 
364.611 
387.794 
385.795 
355.038 
422.383 
375.229 
395.036 
366.382 
392.628 
389.454 
441.901 
369.063 
372.942 
392.852 
394.468 
464.762 
391.354 
398.126 
390.629 
337.322 
406.453 
326.587 
353.163 
366.568 
397.827 
375.458 
428.354 
372.397 
353.749 
410.697 
386.422 
415.172 
414.922 
366.153 
450.866 
353.954 
453.574 
482.102 
375.155 
485.756 
393.869 
401.679 
424.593 
405.089 
434.491 
446.783 
405.822 
377.833 
432.594 
386.369 
403.71 
406.398 
394.022 
419.068 
401.988 
408.669 
410.931 
401.178 
368.057 
424.129 
412.19 
423.865 
424.972 
489.897 
384.697 
395.254 
359.96 
404.582 
439.042 
352.716 
384.007 
388.378 
423.46 
390.44 
369.154 
367.371 
439.313 
412.873 
359.688 
372.489 
451.671 
401.28 
445.453 
366.509 
410.699 
412.605 
347.601 
428.977 
371.69 
403.105 
464.022 
379.836 
408.297 
392.037 
427.229 
382.62 
367.927 
415.175 
469.787 
432.999 
430.694 
433.21 
414.2 
429.971 
439.545 
391.153 
503.642 
405.996 
417.808 
451.543 
411.224 
365.47 
412.009 
389.191 
432.975 
382.158 
421.015 
426.469 
418.237 
385.256 
413.972 
418.429 
375.456 
427.69 
463.265 
404.013 
395.049 
370.166 
363.753 
485.961 
446.588 
410.394 
395.922 
505.142 
429.419 
409.106 
433.319 
488.561 
359.044 
412.3 
469.19 
417.99 
420.972 
476.336 
409.371 
456.306 
403.869 
417.277 
423.649 
410.002 
428.818 
410.789 
360.405 
343.037 
448.637 
390.083 
370.736 
439.223 
427.372 
388.693 
420.082 
433.718 
439.305 
431.36 
407.118 
391.893 
371.485 
423.471 
360.351 
423.522 
389.337 
426.01 
400.553 
366.753 
393.698 
423.818 
392.882 
382.655 
387.698 
399.851 
429.032 
390.504 
420.024 
383.866 
387.263 
428.191 
432.681 
434.475 
448.832 
462.505 
426.742 
443.562 
432.708 
427.183 
422.439 
410.659 
412.448 
416.351 
412.806 
413.326 
375.907 
436.289 
399.234 
400.433 
408.458 
405.974 
428.962 
449.942 
436.004 
424.687 
441.075 
402.886 
435.017 
401.277 
407.03 
426.035 
472.562 
475.913 
429.55 
407.584 
445.368 
427.035 
421.23 
445.283 
417.6 
428.536 
415.844 
477.141 
415.311 
454.885 
482.245 
392.163 
409.157 
401.591 
410.091 
476.239 
453.427 
506.935 
429.175 
429.188 
450.511 
423.425 
415.187 
385.734 
427.993 
459.939 
454.239 
403.657 
433.246 
432.65 
404.269 
478.636 
436.275 
438.266 
373.773 
439.256 
439.824 
477.88 
452.327 
434.282 
509.019 
419.459 
427.37 
431.522 
502.43 
403.999 
422.361 
495.335 
545.391 
470.497 
500.409 
454.216 
412.946 
494.826 
422.827 
511.194 
507.298 
508.515 
509.862 
563.604 
501.777 
459.418 
464.956 
516.654 
461.184 
544.582 
533.958 
481.475 
535.598 
419.749 
489.08 
473.085 
438.513 
448.569 
409.154 
452.99 
439.409 
484.092 
482.808 
458.043 
421.214 
583.848 
446.368 
483.535 
504.43 
426.658 
427.763 
461.746 
433.785 
470.356 
520.491 
503.048 
459.722 
537.011 
483.827 
477.642 
459.574 
438.039 
404.11 
465.109 
485.721 
439.119 
456.305 
396.085 
413.872 
491.925 
422.024 
433.48 
433.769 
454.247 
534.054 
447.328 
447.696 
519.582 
449.352 
440.156 
469.18 
453.5 
454.764 
491.505 
492.831 
459.52 
481.992 
486.335 
469.174 
459.835 
443.168 
482.47 
385.593 
398.108 
445.014 
466.126 
459.291 
466.347 
431.591 
541.328 
467.721 
448.513 
457.982 
482.771 
434.284 
489.796 
527.938 
431.92 
455.883 
437.225 
431.179 
395.545 
363.578 
415.415 
342.689 
459.019 
431.911 
459.303 
431.686 
377.472 
389.648 
423.549 
439.037 
425.311 
387.567 
471.16 
408.075 
499.266 
484.276 
432.45 
484.832 
453.323 
446.217 
524.613 
486.48 
525.766 
487.61 
511.602 
469.221 
432.355 
526.111 
498.44 
446.354 
490.008 
408.268 
462.508 
490.016 
479.45 
480.982 
466.654 
437.738 
529.891 
477.075 
464.384 
462.483 
487.361 
573.263 
497.556 
511.702 
456.637 
437.757 
532.619 
517.792 
499.387 
463.855 
478.099 
492.679 
453.342 
515.754 
483.119 
480.643 
453.002 
467.682 
502.661 
477.683 
474.644 
466.359 
467.192 
464.232 
473.771 
517.255 
507.225 
495.802 
423.396 
536.517 
438.379 
426.716 
463.007 
471.267 
464.572 
447.147 
504.63 
522.93 
520.297 
535.841 
498.339 
515.791 
423.163 
506.944 
513.92 
517.416 
463.161 
433.223 
472.967 
473.033 
483.031 
504.604 
448.808 
471.162 
490.822 
499.364 
481.622 
491.107 
513.185 
547.386 
479.059 
546.819 
527.002 
488.757 
503.767 
482.419 
456.23 
484.449 
442.642 
426.627 
453.866 
500.504 
490.799 
524.601 
469.516 
460.566 
503.475 
546.287 
451.371 
459.539 
489.06 
424.092 
456.926 
485.886 
486.75 
498.036 
436.14 
473.908 
530.358 
466.399 
501.175 
533.161 
546.386 
510.961 
493.155 
482.261 
528.32 
427.984 
528.924 
510.943 
447.151 
462.93 
448.584 
496.201 
475.732 
469.403 
525.065 
511.309 
463.422 
526.351 
462.208 
496.008 
523.305 
467.029 
574.332 
514.725 
500.679 
531.433 
503.225 
481.539 
551.786 
486.387 
546.765 
558.46 
539.75 
551.176 
541.101 
516.286 
466.5 
495.97 
462.986 
479.326 
479.562 
449.416 
529.834 
496.44 
509.825 
522.732 
495.541 
500.93 
498.648 
561.132 
414.612 
511.2 
533.65 
543.224 
520.154 
450.119 
469.294 
513.118 
498.942 
502.493 
491.792 
525.073 
486.026 
592.233 
513.184 
540.268 
483.73 
560.74 
536.616 
596.99 
568.487 
