ITEM: TIMESTEP
7000000
ITEM: NUMBER OF CELLS
1000
ITEM: BOX BOUNDS ss rr pp
0 0.004
0 0.01
-0.5 0.5
ITEM: CELLS f_temp1[*] 
272.81 
308.889 
291.19 
270.104 
306.005 
265.77 
311.747 
333.041 
276.332 
283.014 
271.531 
323.361 
293.542 
318.38 
280.889 
296.212 
277.47 
273.05 
283.101 
285.226 
284.312 
255.178 
311.946 
281.302 
273.8 
281.193 
300.941 
276.703 
304.425 
291.024 
282.518 
294.473 
278.156 
267.687 
274.355 
260.659 
282.024 
302.145 
278.427 
302.267 
268.293 
279.225 
287.64 
312.214 
305.061 
311.864 
308.898 
297.024 
288.542 
313.398 
323.385 
312.839 
301.754 
302.43 
298.498 
314.332 
298.856 
274.148 
301.376 
312.713 
358.321 
287.89 
304.384 
306.704 
294.026 
319.183 
284.796 
318.847 
291.892 
368.92 
305.225 
327.076 
301.018 
328.869 
312.725 
326.323 
328.54 
308.137 
335.757 
334.206 
291.341 
321.119 
327.969 
325.963 
314.354 
326.906 
294.913 
337.706 
296.193 
353.376 
305.393 
316.677 
309.566 
328.196 
266.305 
293.536 
373.387 
311.249 
337.354 
314.018 
369.881 
285.89 
347.467 
331.03 
304.144 
360.61 
344.725 
292.223 
350.813 
352.226 
331.021 
304.635 
355.427 
333.743 
306.518 
324.99 
346.595 
323.519 
322.833 
332.701 
322.105 
335.339 
353.318 
360.417 
326.564 
330.727 
338.303 
328.999 
330.871 
319.787 
310.915 
361.026 
358.058 
335.275 
308.091 
369.011 
328.765 
346.659 
347.498 
310.216 
328.351 
301.753 
345.255 
313.585 
326.234 
302.646 
329.313 
311.677 
349.944 
355.353 
309.505 
316.947 
373.617 
328.529 
330.148 
319.819 
382.538 
315.647 
333.124 
375.214 
342.611 
364.771 
409.347 
316.404 
338.716 
318.534 
318.803 
372.172 
332.091 
342.523 
365.429 
343.337 
343.472 
334.576 
361.843 
374.045 
331.49 
320.997 
305.367 
340.408 
326.541 
377.534 
332.725 
360.012 
361.001 
355.506 
365.833 
327.417 
364.359 
382.414 
343.865 
336.337 
390.7 
356.812 
367.246 
331.584 
364.333 
293.105 
404.084 
377.167 
350.369 
327.291 
326.825 
360.485 
369.963 
369.09 
384.919 
328.372 
361.875 
361.081 
383.054 
340.726 
353.12 
367.633 
338.114 
349.862 
356.393 
350.542 
339.684 
351.594 
335.097 
366.519 
370.021 
330.033 
338.105 
315.043 
388.295 
342.646 
340.404 
335.004 
303.631 
355.681 
321.889 
334.798 
392.724 
354.821 
362.936 
384.184 
397.349 
371.209 
344.224 
333.706 
356.161 
345.79 
329.407 
369.23 
378.972 
347.96 
387.953 
339.986 
406.064 
404.053 
416.825 
343.862 
388.527 
358.759 
436.806 
393.396 
408.89 
362.881 
411.005 
401.823 
393.411 
396.666 
376.756 
380.315 
408.8 
401.95 
397.736 
373.835 
395.926 
389.86 
393.573 
381.431 
358.067 
384.028 
363.148 
421.153 
318.656 
370.378 
383.76 
362.289 
388.704 
346.148 
360.573 
369.582 
408.11 
349.248 
362.197 
383.764 
340.204 
345.347 
351.385 
393.635 
369.082 
384.034 
343.949 
385.879 
379.271 
376.709 
379.563 
384.755 
311.471 
315.194 
395.529 
400.031 
358.084 
313.338 
376.537 
359.21 
352.14 
298.985 
386.036 
360.991 
359.783 
331.011 
342.645 
375.748 
359.49 
360.756 
374.153 
321.141 
372.539 
377.907 
352.541 
362.151 
361.035 
407.244 
382.029 
357.88 
359.055 
383.942 
353.767 
366.939 
381.922 
361.353 
383.086 
390.576 
390.933 
374.188 
389.519 
403.349 
367.508 
382.077 
346.946 
388.939 
352.603 
400.169 
395.574 
396.847 
428.886 
351.962 
369.097 
387.884 
408.556 
389.888 
367.424 
452.013 
361.258 
386.02 
345.049 
401.205 
385.876 
354.327 
360.681 
349.59 
392.295 
387.532 
405.832 
386.833 
351.113 
393.845 
358.376 
366.877 
352.099 
369.137 
351.324 
369.262 
341.5 
422.316 
383.687 
362.068 
397.852 
416.668 
396.842 
408.883 
416.98 
403.37 
485.796 
384.271 
442.862 
376.936 
378.38 
394.707 
401.843 
421.4 
407.397 
390.312 
381.416 
368.298 
402.669 
417.167 
383.665 
380.445 
386.957 
384.623 
392.109 
396.755 
359.741 
384.988 
368.705 
377.238 
441.419 
416.276 
365.809 
393.696 
383.908 
389.754 
381.067 
365.54 
378.591 
417.034 
366.587 
439.854 
416.712 
389.975 
390.106 
386.913 
426.782 
397.125 
394.485 
354.892 
399.156 
352.731 
395.222 
412.466 
379.562 
352.249 
409.74 
371.56 
376.748 
369.184 
410.148 
394.041 
377.2 
386.368 
382.156 
337.284 
432.858 
384.728 
344.121 
386.246 
346.683 
417.641 
361.21 
368.236 
408.311 
370.407 
391.102 
440.262 
403.228 
344.809 
408.017 
361.342 
409.066 
388.525 
347.461 
371.984 
374.323 
414.374 
392.502 
390.968 
356.09 
388.558 
407.029 
350.051 
369.915 
419.318 
396.332 
418.256 
373.864 
403.094 
386.365 
391.397 
449.54 
409.197 
397.151 
433.328 
404.609 
373.262 
464.008 
446.069 
427.741 
366.959 
361.774 
419.04 
451.058 
404.245 
362.383 
449.481 
429.342 
383.747 
400.51 
451.917 
417.305 
379.351 
390.206 
409.958 
382.441 
384.997 
418.591 
449.769 
396.774 
446.276 
435.077 
402.31 
410.716 
485.066 
377.07 
411.407 
443.327 
403.305 
376.315 
412.491 
394.3 
464.591 
399.243 
462.948 
386.832 
423.686 
406.203 
355.614 
414.143 
419.887 
440.169 
359.229 
415.503 
410.586 
450.154 
439.666 
416.569 
421.78 
359.352 
401.671 
433.715 
377.674 
360.584 
419.934 
442.584 
523.579 
426.582 
466.502 
365.363 
372.217 
421.49 
383.314 
460.983 
480.148 
404.109 
392.319 
396.036 
403.07 
423.405 
380.89 
441.858 
423.915 
407.988 
429.652 
456.475 
470.661 
437.818 
412.222 
431.709 
483.868 
424.74 
396.51 
474.395 
416.609 
403.43 
396.208 
454.429 
443.649 
411.348 
476.184 
494.992 
483.337 
429.084 
436.133 
396.888 
454.177 
481.789 
471.227 
393.497 
416.72 
437.41 
464.02 
476.166 
469.446 
456.927 
436.987 
456.184 
462.134 
427.77 
470.168 
445.799 
453.49 
483.896 
440.748 
453.86 
470.095 
462.625 
476.845 
433.565 
410.153 
417.917 
471.759 
404.784 
456.257 
371.503 
402.047 
407.034 
433.25 
391.574 
420.325 
418.072 
374.513 
440.914 
370.461 
430.026 
443.445 
441.295 
458.716 
456.328 
426.17 
423.766 
442.154 
447.614 
428.928 
456.169 
419.616 
479.556 
408.057 
445.281 
364.728 
509.38 
440.349 
460.042 
425.766 
457.009 
430.854 
476.66 
411.29 
434.155 
470.946 
425.735 
435.607 
511.374 
499.827 
454.936 
425.456 
466.071 
442.015 
403.638 
408.489 
461.316 
397.883 
463.032 
492.042 
520.895 
442.508 
455.326 
441.984 
466.395 
493.771 
450.42 
472.068 
402.65 
439.887 
459.937 
400.115 
408.723 
423.909 
411.83 
466.527 
387.984 
398.931 
376.959 
490.951 
416.615 
468.814 
421.421 
445.248 
458.951 
428.557 
441.066 
427.286 
464.839 
472.738 
393.015 
436.865 
399.594 
498.554 
466.963 
479.543 
424.048 
466.072 
459.551 
412.63 
517.773 
471.736 
397.233 
412.897 
465.345 
414.167 
422.326 
407.611 
440.653 
465.117 
411.583 
398.749 
443.926 
445.937 
438.854 
458.598 
424.123 
437.941 
467.562 
441.045 
468.324 
461.057 
418.946 
500.187 
484.177 
403.115 
412.332 
525.655 
478.014 
487.4 
492.257 
442.133 
406.321 
425.915 
518.504 
458.319 
414.079 
423.667 
471.223 
447.561 
479.403 
463.724 
420.937 
477.446 
475.79 
448.013 
518.862 
446.845 
425.074 
512.926 
442.88 
443.834 
431.488 
489.533 
483.283 
486.536 
421.414 
508.785 
470.806 
489.75 
460.684 
400.221 
433.631 
477.331 
420.837 
475.58 
454.545 
410.666 
451.642 
468.824 
395.486 
397.931 
476.17 
425.547 
512.169 
443.626 
459.26 
474.231 
531.444 
475.723 
454.499 
447.852 
486.572 
474.355 
439.524 
425.013 
461.586 
521.668 
514.627 
461.119 
499.009 
444.279 
492.676 
468.652 
473.907 
429.378 
438.755 
437.272 
493.524 
542.176 
411.006 
456.189 
424.609 
462.256 
460.884 
439.386 
460.414 
465.499 
424.693 
451.163 
424.742 
545.409 
452.824 
459.947 
502.556 
453.431 
416.686 
511.357 
431.384 
457.198 
491.972 
479.74 
413.115 
422.679 
492.343 
410.949 
501.84 
469.012 
487.054 
508.557 
497.318 
519.557 
498.234 
440.304 
487.3 
496.031 
568.451 
484.669 
469.169 
458.632 
453.272 
518.126 
495.813 
473.686 
511.771 
467.462 
476.133 
499.501 
518.471 
492.186 
464.064 
445.535 
484.733 
494.087 
500.77 
421.545 
460.393 
447.131 
469.029 
506.511 
512.974 
459.757 
520.272 
454.2 
469.645 
537.737 
514.853 
468.227 
514.757 
482.559 
480.655 
477.989 
497.519 
447.392 
483.11 
453.277 
439.579 
421.865 
483.024 
459.095 
452.755 
459.339 
402.345 
463.13 
429.819 
413.919 
502.555 
445.818 
444.126 
403.013 
383.767 
459.626 
453.138 
520.347 
387.497 
477.629 
473.443 
510.108 
473.308 
476.946 
435.968 
492.174 
469.552 
479.086 
454.574 
494.238 
448.274 
444.443 
508.84 
441.561 
501.925 
473.03 
571.021 
456.929 
545.311 
538.682 
505.264 
477.315 
539.849 
506.845 
482.65 
529.117 
424.654 
453.125 
492.744 
487.442 
484.713 
518.45 
570.118 
445.899 
481.463 
487.774 
530.302 
423.483 
552.893 
464.359 
493.033 
473.7 
523.52 
553.413 
514.961 
533.754 
501.12 
482.96 
546.681 
485.924 
473.035 
457.216 
423.213 
487.667 
444.325 
457.759 
554.618 
504.881 
523.312 
476.061 
465.053 
499.694 
555.866 
460.431 
445.676 
440.491 
471.761 
431.851 
499.133 
443.85 
496.291 
416.044 
443.345 
450.057 
517 
535.704 
523.755 
443.666 
511.701 
539.218 
433.294 
520.986 
491.816 
468.199 
512.503 
505.825 
495.615 
508.872 
501.474 
430.91 
531.861 
533.952 
468.757 
486.809 
502.508 
444.765 
