ITEM: TIMESTEP
4200000
ITEM: NUMBER OF CELLS
1000
ITEM: BOX BOUNDS ss rr pp
0 0.004
0 0.01
-0.5 0.5
ITEM: CELLS f_temp1[*] 
320.444 
306.51 
286.481 
316.615 
294.605 
293.372 
289.376 
308.114 
291.693 
314.927 
295.083 
292.152 
300.854 
277.811 
311.064 
316.017 
302.219 
313.608 
317.652 
292.876 
292.62 
296.041 
316.597 
283.892 
315.226 
324.413 
310.286 
318.874 
319.331 
294.809 
322.879 
312.534 
309.469 
263.093 
322.139 
301.072 
329.256 
306.129 
293.278 
340.338 
290.08 
336.617 
327.935 
322.316 
336.673 
308.779 
337.945 
296.463 
302.801 
332.267 
315.925 
302.758 
314.359 
308.64 
311.018 
329.171 
313.257 
314.496 
309.408 
302.235 
305.22 
334.181 
334.639 
343.105 
352.586 
348.85 
322.982 
312.312 
319.04 
327.75 
331.114 
294.496 
323.661 
339.161 
314.234 
310.153 
324.09 
303.131 
325.266 
320.002 
336.768 
324.348 
300.813 
324.051 
351.911 
301.916 
308.21 
316.975 
314.55 
289.504 
309.576 
304.579 
321.833 
296.836 
337.028 
309.929 
335.687 
303.528 
318.257 
319.033 
307.108 
282.421 
307.626 
299.81 
312.066 
296.414 
306.426 
334.575 
320.123 
329.331 
294.123 
348.416 
352.728 
335.499 
315.235 
322.159 
330.006 
335.168 
328.984 
335.67 
349.727 
289.19 
350.954 
325.419 
291.061 
316.841 
324.039 
349.128 
342.824 
351.673 
318.77 
337.972 
327.163 
327.014 
363.45 
335.755 
384.895 
353.787 
351.49 
315.815 
324.271 
347.242 
382.664 
366.3 
335.933 
303.67 
328.281 
325.86 
311.911 
364.103 
324.041 
323.345 
342.234 
332.919 
296.307 
348.307 
343.188 
322.834 
353.032 
345.468 
340.913 
339.468 
327.466 
326.797 
351.772 
309.643 
340.37 
350.562 
319.867 
320.753 
341.334 
388.334 
361.074 
345.463 
331.478 
352.38 
332.901 
354.916 
314.937 
304.782 
304.797 
360.724 
329.044 
374.444 
353.069 
343.197 
359.599 
369.071 
340.762 
378.367 
371.31 
378.414 
304.437 
382.864 
356.9 
393.155 
369.261 
364.531 
353.637 
340.418 
374.648 
334.035 
370.704 
376.44 
333.409 
379.236 
365.754 
339.305 
357.064 
417.227 
349.032 
364.119 
327.703 
326.96 
343.134 
350.168 
361.602 
323.622 
320.919 
367.213 
403.721 
352.136 
319.878 
356.961 
327.648 
373.886 
341.236 
394.375 
428.829 
414.918 
338.819 
378.717 
366.459 
366.343 
376.273 
323.011 
403.509 
376.716 
389.454 
380.244 
341.422 
349.769 
385.727 
374.284 
428.485 
407.589 
395.405 
377.328 
390.418 
335.831 
355.304 
411.864 
341.925 
348.721 
397.303 
349.481 
371.588 
333.596 
341.201 
360.481 
375.758 
343.461 
357.889 
344.778 
342.322 
361.269 
368.841 
418.873 
347.607 
373.247 
337.544 
339.981 
386.807 
345.693 
364.179 
391.344 
397.116 
368.971 
363.954 
357.591 
367.937 
356.249 
420.225 
401.774 
364.839 
399.512 
381.533 
374.92 
361.397 
349 
385.215 
331.012 
363.589 
393.74 
391.59 
396.787 
364.151 
369.016 
366.239 
358.069 
345.18 
379.407 
396.697 
405.433 
404.104 
369.71 
397.094 
378.423 
380.389 
411.458 
376.095 
382.192 
351.279 
318.593 
360.933 
373.94 
369.287 
349.012 
397.834 
400.845 
378.873 
400.425 
392.827 
362.245 
405.649 
351.853 
392.824 
380.706 
392.422 
344.22 
338.458 
314.837 
352.33 
358.847 
372.567 
355.788 
318.404 
357.696 
322.578 
352.101 
349.045 
373.7 
373.779 
420.07 
395.857 
374.447 
384.069 
388.842 
399.881 
309.316 
388.666 
359.294 
359.515 
373.397 
384.129 
370.808 
361.063 
365.156 
350.166 
366.538 
400.088 
351.535 
384.726 
370.788 
417.556 
401.377 
383.612 
361.306 
370.275 
363.006 
390.925 
423.554 
366.554 
386.764 
428.351 
382.121 
370.429 
412.844 
410.431 
364.017 
343.592 
361.892 
389.203 
422.829 
404.107 
349.91 
395.46 
373.191 
453.415 
378.699 
419.501 
371.77 
389.556 
402.873 
358.427 
376.61 
373.708 
406.135 
400.523 
392.89 
388.345 
407.584 
399.943 
431.197 
419.409 
363.62 
353.418 
382.504 
416.024 
408.018 
357.332 
403.282 
377.228 
464.647 
386.076 
387.561 
394.328 
407.778 
416.063 
417.923 
411.775 
400.609 
398.43 
420.369 
384.037 
372.669 
368.609 
402.025 
431.448 
355.562 
378.438 
347.868 
330.076 
414.023 
452.283 
336.348 
369.615 
383.073 
415.892 
360.57 
392.671 
434.297 
437.831 
421.883 
382.49 
353.162 
316.28 
364.906 
377.276 
377.878 
373.243 
453.974 
416.944 
365.783 
369.709 
371.41 
376.658 
398.945 
417.56 
399.974 
369.475 
428.379 
408.062 
392.645 
459.613 
431.585 
377.493 
408.154 
392.34 
411.138 
408.428 
435.513 
349.091 
385.112 
409.376 
395.198 
393.765 
408.635 
362.828 
381.824 
409.486 
395.345 
419.274 
388.132 
403.763 
439.29 
393.769 
386.194 
409.333 
395.089 
395.755 
396.77 
390.878 
423.528 
410.32 
408.86 
390.818 
413.466 
340.889 
368.992 
424.994 
391.783 
394.014 
419.043 
397.247 
382.554 
379.566 
389.081 
441.913 
380.693 
395.684 
399.699 
424.029 
411.369 
425.197 
451.065 
414.45 
454.01 
413.261 
415.387 
407.028 
377.197 
472.122 
444.887 
390.996 
436.565 
386.284 
436.671 
380.696 
416.443 
443.137 
450.33 
392.761 
420.495 
395.346 
436.22 
449.269 
403.244 
433.731 
425.406 
429.759 
352.114 
412.462 
391.22 
433.568 
440.606 
432.063 
377.049 
435.601 
379.438 
435.101 
405.973 
411.803 
453.026 
381.535 
398.877 
415.796 
402.182 
404.069 
424.008 
385.276 
434.47 
432.508 
441.792 
436.82 
434.191 
389.51 
460.038 
432.819 
425.642 
435.753 
399.634 
393.989 
409.045 
383.351 
355.393 
396.94 
358.141 
457.041 
426.723 
369.497 
406.812 
421.253 
429.398 
408.753 
407.588 
397.392 
379.752 
412.642 
448.849 
394.843 
391.973 
433.988 
449.333 
455.522 
401.37 
393.233 
428.502 
399.479 
422.313 
440.114 
433.481 
475.027 
412.605 
421.528 
411.103 
406.017 
429.559 
435.461 
434.623 
507.418 
409.919 
464.674 
457.62 
426.646 
421.559 
388.527 
440.268 
441.35 
515.482 
485.082 
456.68 
444.635 
454.386 
443.931 
385.513 
433.374 
474.998 
481.987 
448.889 
419.369 
425.896 
487.522 
440.198 
467.788 
514.536 
463.151 
465.218 
455.605 
443.01 
378.672 
416.787 
428.48 
399.691 
433.531 
382.262 
394.747 
442.414 
470.124 
398.161 
468.66 
454.359 
531.94 
406.537 
404.65 
393.935 
471.638 
478.728 
422.534 
447.139 
454.611 
461.557 
425.3 
405.424 
521.042 
528.239 
497.994 
472.727 
480.015 
495.954 
554.707 
451.376 
502.162 
534.74 
477.249 
439.964 
504.172 
429.03 
436.966 
493.357 
398.681 
415.195 
454.584 
420.379 
468.011 
409.135 
418.456 
433.842 
381.157 
426.141 
400.082 
392.63 
411.661 
451.045 
446.713 
439.704 
422.528 
439.193 
486.73 
443.808 
527.034 
442.722 
426.727 
450.152 
469.726 
437.748 
433.315 
412.738 
432.161 
464.089 
390.467 
459.627 
434.345 
395.522 
408.515 
475.699 
455.546 
426.969 
529.176 
564.759 
468.788 
494.681 
431.238 
506.309 
440.269 
400.648 
497.499 
472.084 
463.191 
459.578 
439.246 
427.22 
522.56 
502.652 
466.764 
493.677 
416.056 
406.653 
490.059 
517.827 
499.297 
465.065 
466.212 
475.184 
492.519 
495.47 
460.83 
437.231 
455.427 
459.937 
452.68 
433.233 
466.163 
445.638 
454.678 
431.045 
495.884 
440.684 
476.263 
496.104 
458.123 
407.591 
411.801 
434.503 
449.889 
450.232 
430.925 
358.217 
457.374 
479.731 
474.954 
454.108 
462.538 
432 
441.715 
440.014 
455.752 
427.297 
523.127 
443.852 
484.004 
479.258 
438.376 
483.94 
480.42 
522.914 
432.983 
451.843 
438.395 
456.614 
499.557 
454.291 
450.916 
499.071 
445.281 
452.517 
509.723 
455.717 
443.267 
536.225 
447.996 
434.365 
478.004 
510.123 
463.648 
490.313 
443.198 
499.337 
456.236 
483.891 
483.224 
462.152 
499.715 
497.835 
447.352 
482.987 
456.374 
440.203 
436.458 
493.826 
474.748 
481.844 
449.374 
474.54 
462.416 
405.311 
485.612 
469.72 
513.431 
437.112 
464.52 
392.246 
472.116 
498.016 
463.761 
547.107 
458.908 
470.203 
491.532 
475.961 
437.873 
430.338 
442.59 
456.226 
431.118 
442.955 
469.213 
385.159 
447.909 
503.044 
472.787 
458.625 
466.383 
404.156 
432.172 
454.002 
476.661 
446.76 
535.733 
404.603 
417.097 
407.928 
471.118 
495.736 
433.615 
531.309 
455.869 
420.474 
453.023 
444.122 
450.339 
523.952 
518.507 
493.539 
414.655 
502.727 
519.139 
454.593 
441.731 
514.331 
477.411 
416.049 
497.981 
506.058 
492.68 
473.158 
464.926 
506.804 
524.012 
463.63 
458.355 
514.318 
437.291 
450.417 
421.5 
460.216 
450.015 
453.591 
425.902 
458.509 
455.545 
458.405 
460.1 
448.142 
422.881 
431.785 
488.301 
451.419 
465.359 
533.252 
457.04 
429.947 
492.603 
472.131 
485.528 
484.068 
466.819 
471.343 
485.446 
446.103 
480.693 
455.218 
424.788 
468.184 
548.665 
513.649 
508.598 
460.176 
468.308 
475.911 
426.757 
472.74 
466.194 
491.667 
480.494 
417.607 
494.914 
519.705 
472.613 
459.232 
396.072 
522.842 
491.121 
482.739 
443.386 
572.909 
499.313 
584.642 
493.837 
543.305 
511.057 
503.756 
481.839 
506.587 
491.762 
523.939 
533.816 
540.211 
433.626 
463.952 
509.046 
475.876 
469.798 
506.493 
492.216 
521.569 
546.902 
467.391 
484.648 
536.973 
481.3 
491.8 
443.573 
556.012 
503.673 
499.813 
525.341 
467.609 
451.384 
425.47 
491.114 
437.358 
474.457 
433.076 
443.681 
495.334 
415.709 
466.978 
452.431 
453.79 
453.862 
489.263 
525.499 
497.406 
459.188 
505.877 
532.981 
432.14 
484.739 
530.538 
