ITEM: TIMESTEP
8200000
ITEM: NUMBER OF CELLS
1000
ITEM: BOX BOUNDS ss rr pp
0 0.004
0 0.01
-0.5 0.5
ITEM: CELLS f_temp1[*] 
303.639 
295.414 
297.626 
310.116 
327.511 
307.812 
305.039 
315.087 
293.601 
291.459 
318.419 
312.004 
301.483 
310.765 
303.237 
279.134 
324.853 
302.48 
314.233 
304.117 
296.109 
295.893 
313.592 
295.177 
310.94 
312.157 
299.263 
314.551 
306.971 
297.142 
281.051 
299.298 
293.221 
315.182 
268.562 
297.545 
321.939 
273.882 
316.775 
309.76 
352.803 
301.959 
356.151 
310.098 
340.012 
316.151 
365.118 
309.647 
326.35 
292.059 
329.187 
331.504 
281.648 
323.87 
347.727 
329.205 
338.229 
288.853 
293.707 
340.119 
323.787 
351.452 
327.037 
317.762 
335.873 
346.668 
345.217 
351.265 
294.424 
295.154 
318.585 
304.188 
296.752 
322.025 
273.9 
288.603 
327.966 
324.9 
319.879 
308.015 
312.15 
331.309 
334.571 
301.086 
290.876 
351.317 
319.649 
327.225 
288.89 
317.445 
325.588 
299.246 
330.117 
287.892 
349.173 
397.22 
350.261 
344.299 
363.138 
359.126 
347.859 
349.343 
322.939 
304.801 
350.507 
314.551 
328.938 
331.691 
321.815 
335.883 
324.39 
307.471 
341.887 
337.143 
357.975 
362.024 
337.543 
366.395 
316.938 
339.894 
350.846 
284.446 
302.335 
335.397 
266.317 
342.663 
330.489 
354.043 
361.95 
360.232 
364.895 
352.053 
326.137 
322.301 
311.669 
347.41 
363.148 
391.862 
327.853 
343.797 
360.761 
364.675 
358.69 
347.467 
385.073 
366.136 
401.461 
375.12 
341.336 
338.658 
322.733 
314.716 
305.193 
313.196 
337.562 
375.687 
387.229 
336.081 
329.755 
327.45 
306.108 
331.693 
342.667 
330.288 
338.981 
361.964 
312.093 
323.57 
400.03 
320.605 
348.759 
353.623 
330.655 
338.021 
329.535 
372.419 
323.775 
351.972 
342.162 
313.691 
395.546 
294.596 
339.679 
362.055 
368.131 
331.197 
346.927 
351.464 
320.684 
322.743 
322.311 
359.414 
339.613 
359.911 
332.593 
348.953 
372.739 
302.007 
320.69 
353.269 
315.205 
319.987 
332.603 
336.645 
345.572 
317.857 
339.813 
350.923 
355.649 
356.541 
327.256 
333.748 
363.997 
329.44 
364.269 
303.599 
348.101 
351.852 
382.394 
328.118 
348.221 
353.405 
329.949 
327.37 
332.945 
360.475 
303.932 
353.52 
335.64 
387.629 
365.873 
345.953 
339.301 
394.977 
381.373 
383.308 
344.6 
356.577 
338.286 
353.521 
340.434 
370.102 
371.537 
362.643 
346.416 
377.655 
349.056 
345.102 
330.047 
378.439 
361.624 
384.467 
347.529 
367.475 
304.168 
340.365 
346.858 
377.072 
376.429 
362.16 
363.8 
316.183 
327.353 
322.892 
387.683 
286.459 
390.709 
376.644 
338.777 
352.88 
366.059 
352.128 
379.123 
370.333 
336.685 
361.237 
326.15 
343.47 
394.181 
392.577 
351.338 
376.214 
367.511 
401.246 
321.261 
385.063 
376.122 
386.203 
373.46 
423.87 
368.14 
331.253 
460.071 
390.149 
366.745 
394.089 
381.632 
413.04 
453.936 
385.135 
401.303 
454.29 
435.773 
426.423 
464.849 
375.514 
340.892 
365.099 
382.186 
385.556 
378.944 
352.811 
421.022 
417.828 
418.231 
388.727 
347.814 
400.038 
408.384 
426.495 
358.947 
419.416 
381.875 
373.774 
413.663 
412.41 
396.512 
375.545 
359.566 
393.881 
351.811 
399.411 
405.248 
409.424 
391.723 
468.492 
393.981 
424.472 
367.65 
383.669 
412.322 
375.446 
400.675 
368.369 
418.984 
391.956 
391.623 
434.826 
384.618 
383.834 
347.852 
415.401 
392.911 
415.87 
405.652 
404.451 
386.026 
378.489 
366.956 
442.834 
488.632 
401.224 
335.125 
382.001 
399.211 
387.606 
374.506 
351.851 
385.479 
392.229 
369.445 
433.798 
382.485 
354.197 
385.753 
405.358 
433.116 
412.363 
367.464 
412.241 
382.151 
399.412 
394.939 
408.982 
358.643 
388.365 
385.954 
398.652 
419.062 
363.564 
401.128 
404.561 
368.922 
391.006 
370.164 
411.933 
404.669 
410.406 
382.476 
379.411 
446.289 
351.808 
434.853 
414.91 
362.52 
415.599 
383.795 
388.277 
436.455 
365.274 
402.449 
387.665 
387.51 
388.84 
360.998 
427.717 
422.316 
376.641 
413.051 
398.265 
434.545 
378.017 
402.704 
368.817 
341.078 
402.093 
352.196 
369.539 
397.96 
426.569 
388.252 
423.027 
431.715 
376.999 
389.715 
425.038 
400.689 
401.949 
389.004 
384.078 
437.267 
368.489 
462.326 
450.828 
386.44 
370.034 
367.143 
389.098 
423.701 
440.298 
428.891 
414.37 
429.556 
446.253 
426.3 
358.67 
419.491 
395.013 
503.925 
396.592 
389.339 
411.749 
479.447 
388.481 
405.279 
405.145 
446.045 
400.474 
467.303 
423.078 
390.791 
381.739 
366.135 
395.541 
380.229 
338.248 
423.67 
437.569 
407.655 
459.928 
397.887 
415.006 
413.017 
379.074 
463.29 
390.674 
376.065 
406.078 
411.179 
353.501 
436.544 
435.442 
412.908 
472.085 
458.045 
397.396 
375.807 
397.161 
433.782 
426.996 
408.002 
392.78 
395.258 
362.047 
382.394 
385.416 
397.804 
420.549 
344.685 
383.088 
430.861 
379.44 
430.488 
416.101 
391.328 
440.261 
416.788 
435.055 
453.663 
376.21 
426.763 
437.622 
423.834 
431.473 
462.609 
427.837 
454.688 
356.8 
448.007 
383.49 
424.171 
405.222 
419.53 
419.675 
433.265 
426.543 
362.971 
384.313 
420.381 
404.283 
395.06 
450.715 
425.057 
423.291 
358.353 
425.461 
408.767 
383.802 
446.131 
392.768 
414.415 
385.151 
412.979 
393.214 
417.524 
406.588 
425.744 
433.141 
382.214 
424.211 
410.663 
392.085 
427.741 
417.023 
430.535 
418.236 
382.371 
371.69 
394.227 
429.231 
406.883 
412.515 
396.07 
432.51 
448.973 
373.199 
376.169 
412.643 
464.936 
433.754 
400.481 
389.223 
415.726 
447.771 
401.572 
414.63 
467.158 
398.531 
432.302 
402.872 
392.478 
391.175 
437.455 
429.388 
430.914 
439.966 
436.251 
409.343 
468.452 
398.562 
417.395 
405.71 
456.402 
521.981 
474.871 
408.29 
532.634 
444.629 
441.437 
425.318 
445.66 
440.884 
476.235 
405.289 
457.917 
447.772 
437.784 
434.404 
432.026 
404.88 
485.683 
407.503 
365.602 
405.289 
458.019 
390.722 
447.757 
439.486 
434.572 
434.447 
434.424 
435.103 
457.138 
423.386 
460.303 
435.146 
384.05 
368.426 
446.767 
430.48 
383.833 
478.863 
430.942 
467.416 
414.862 
467.995 
375.359 
415.177 
394.026 
417.622 
512.053 
443.442 
458.232 
427.866 
431.05 
418.036 
416.541 
443.185 
429.11 
440.479 
422.03 
399.16 
459.869 
454.812 
437.129 
445.617 
422.571 
415.469 
473.296 
359.369 
389.994 
394.936 
425.264 
466.706 
486.86 
420.028 
430.751 
423.452 
513.29 
445.5 
404.556 
408.523 
423.049 
429.974 
450.959 
439.302 
421.65 
463.72 
424.173 
487.036 
479.388 
435.509 
482.864 
473.277 
465.671 
527.001 
432.092 
480.715 
481.295 
443.898 
445.607 
426.351 
497.86 
359.777 
417.911 
415.283 
413.465 
416.638 
402.515 
435.704 
434.143 
424.363 
427.903 
437.363 
419.002 
490.468 
439.179 
459.126 
414.084 
433.505 
484.559 
486.604 
414.17 
401.465 
428.778 
490.156 
497.454 
515.809 
473.875 
469.812 
450.215 
394.684 
475.591 
436.502 
410.302 
497.23 
471.678 
485.638 
464.512 
434.752 
420.396 
475.175 
459.39 
442.799 
496.354 
476.786 
489.586 
463.495 
460.18 
435.134 
477.265 
463.11 
459.728 
493.14 
447.559 
466.747 
461.431 
452.975 
449.153 
468.267 
471.947 
446.074 
494.019 
445.064 
489.31 
473.389 
508.024 
526.99 
491.216 
521.447 
484.455 
459.579 
418.472 
481.234 
471.032 
518.526 
488.082 
520.48 
591.109 
498.784 
472.515 
459.728 
521.744 
478.853 
546.193 
535.609 
485.364 
549.574 
450.204 
516.987 
520.711 
475.411 
506.668 
459.684 
452.474 
536.819 
459.586 
484.693 
474.058 
545.981 
479.218 
423.614 
568.303 
489.601 
426.83 
440.876 
437.476 
456.215 
462.536 
522.996 
487.356 
448.882 
411.316 
473.124 
490.585 
405.912 
471.274 
459.627 
387.021 
429.315 
463.424 
490.936 
460.742 
462.808 
427.723 
457.907 
475.839 
427.57 
399.359 
448.673 
472.23 
444.14 
487.658 
448.556 
419.138 
423.902 
484.46 
426.704 
510.529 
465.621 
418.122 
455.257 
480.452 
488.149 
439.851 
508.382 
421.344 
432.991 
474.596 
409.468 
436.142 
430.644 
515.694 
458.622 
422.085 
451.522 
517.614 
498.941 
535.194 
531.425 
516.722 
531.657 
521.849 
493.013 
527.218 
522.026 
487.106 
574.653 
516.2 
469.593 
492.598 
441.698 
522.765 
538.599 
486.413 
480.777 
474.734 
511.146 
459.267 
496.759 
470.165 
498.252 
501.915 
474.477 
511.294 
450.264 
557.788 
453.226 
495.183 
518.941 
546.069 
460.019 
444.889 
485.148 
513.405 
380.37 
478.566 
483.929 
434.287 
522.831 
449.705 
473.769 
470.927 
462.743 
460.301 
466.86 
471.719 
467.81 
582.441 
467.834 
488.291 
534.954 
521.739 
512.341 
479.184 
524.696 
471.921 
468.567 
446.057 
483.134 
452.868 
424.368 
446.483 
492.205 
473.244 
446.855 
502.262 
498.184 
538.616 
492.018 
460.538 
474.274 
521.576 
442.571 
519.636 
485.5 
564.829 
505.357 
530.722 
466.408 
490.738 
522.987 
520.312 
541.282 
449.167 
496.477 
506.04 
524.004 
456.821 
471.102 
488.794 
494.776 
476.699 
472.801 
539.524 
496.462 
425.979 
483.216 
437.666 
505.897 
496.96 
500.962 
510.227 
497.883 
548.401 
455.74 
496.166 
437.064 
492.081 
469.949 
504.133 
493.873 
468.205 
430.16 
520.863 
499.375 
501.921 
469.97 
478.908 
550.643 
533.603 
550.261 
476.345 
437.752 
520.354 
513.141 
515.707 
524.499 
502.181 
537.728 
472.646 
481.355 
508.012 
507.615 
525.81 
511.079 
511.51 
532.197 
466.785 
515.653 
