ITEM: TIMESTEP
9200000
ITEM: NUMBER OF CELLS
1000
ITEM: BOX BOUNDS ss rr pp
0 0.004
0 0.01
-0.5 0.5
ITEM: CELLS f_temp1[*] 
308.409 
294.067 
317.896 
331.256 
319.053 
317.847 
289.16 
320.327 
279.775 
302.409 
278.249 
289.484 
320.282 
289.291 
312.747 
280.004 
302.443 
283.232 
276.684 
319.045 
299.671 
306.469 
309.855 
297.615 
260.035 
287.573 
308.985 
288.186 
308.592 
325.766 
316.595 
321.147 
321.683 
292.592 
325.225 
303.543 
347.253 
272.881 
305.194 
300.346 
323.186 
329.687 
305.64 
333.041 
324.422 
348.844 
324.88 
328.272 
303.019 
318.494 
313.086 
288.21 
294.205 
285.938 
295.97 
273.481 
296.997 
268.869 
287.802 
264.076 
292.96 
325.833 
287.899 
268.366 
311.714 
325.311 
307.121 
329.257 
333.419 
321.554 
318.552 
280.614 
300.975 
287.719 
318.702 
277.967 
361.664 
332.936 
296.589 
333.891 
307.867 
294.351 
324.236 
351.632 
333.376 
330.195 
307.187 
343.882 
338.358 
327.802 
311.546 
331.807 
316.665 
288.429 
332.071 
296.755 
319.759 
331.58 
329.462 
345.375 
310.159 
335.435 
328.963 
281.51 
303.557 
329.961 
313.409 
310.996 
306.439 
334.359 
339.355 
311.516 
327.523 
276.705 
329.584 
345.63 
337.057 
302.096 
313.15 
309.137 
278.742 
308.336 
355.122 
346.373 
325.889 
332.943 
348.234 
339.969 
303.983 
345.441 
309.036 
337.875 
301.083 
347.519 
338.862 
310.771 
315.89 
349.458 
326.391 
335.003 
352.23 
324.311 
330.25 
318.921 
360.456 
354.84 
338.626 
362.569 
365.062 
325.483 
310.387 
352.658 
297.456 
327.509 
332.627 
361.953 
333.115 
336.747 
286.036 
342.404 
326.596 
315.632 
300.634 
383.7 
308.676 
321.972 
327.464 
338.569 
305.44 
301.442 
312.196 
314.737 
326.488 
350.705 
328.36 
297.837 
343.993 
343.594 
338.852 
300.132 
347.63 
322.508 
348.884 
333.18 
338.399 
311.442 
307.397 
320.266 
332.221 
353.944 
332.128 
352.503 
334.23 
329.299 
391.49 
365.517 
319.96 
318.644 
355.419 
352.161 
332.464 
375.912 
333.621 
306.973 
337.219 
381.107 
360.712 
335.715 
326.973 
349.89 
384.649 
340.395 
335.68 
386.743 
347.995 
330.641 
377.381 
402.464 
383.317 
365.483 
364.425 
338.721 
375.257 
340.687 
371.291 
351.71 
366.866 
321.984 
331.388 
338.919 
356.531 
357.287 
331.985 
315.924 
327.384 
355.317 
342.191 
360.554 
345.988 
357.447 
359.03 
354.876 
359.096 
339.357 
340.79 
324.437 
349.633 
317.663 
323.066 
344.112 
354.675 
325.894 
342.278 
369.181 
341.639 
347.279 
384.024 
356.589 
343.99 
344.595 
324.842 
322.899 
339.901 
310.373 
354.472 
336.928 
309.532 
377.933 
346.035 
346.697 
356.064 
339.906 
410.013 
335.837 
331.645 
346.532 
371.572 
383.982 
376.603 
360.573 
419.859 
357.298 
360.37 
401.784 
351.415 
414.662 
341.701 
414.387 
366.556 
320.861 
325.155 
337.285 
353.062 
359.297 
337.278 
340.819 
353.932 
336.588 
368.175 
369.846 
381.982 
424.74 
362.17 
383.808 
368.89 
352.424 
326.015 
333.431 
336.494 
397.96 
366.73 
387.867 
364.303 
330.487 
381.204 
377.181 
388.668 
359.984 
345.254 
325.351 
340.083 
385.4 
367.898 
374.751 
380.587 
313.662 
349.709 
342.779 
377.913 
388.334 
323.447 
394.658 
385.884 
351.999 
371.241 
376.423 
407.445 
356.533 
380.111 
379.679 
393.862 
405.672 
397.424 
393.354 
389.991 
406.818 
404.065 
402.677 
423.008 
380.8 
370.87 
379.452 
337.794 
354.092 
334.497 
371.112 
366.433 
366.158 
356.858 
341.857 
359.083 
328.195 
324.026 
418.557 
426.396 
379.512 
387.174 
407.994 
421.658 
372.663 
368.623 
403.233 
445.397 
390.17 
380.944 
393.024 
376.102 
377.607 
395.206 
397.22 
360.559 
384.809 
414.025 
426.81 
432.356 
408.084 
365.068 
357.517 
422.207 
374.833 
373.354 
432.742 
426.496 
377.462 
395.629 
432.582 
390.57 
389.977 
379.628 
439.707 
407.247 
383.31 
383.189 
433.025 
383.912 
410.962 
382.513 
409.741 
377.824 
401.157 
417.945 
346.564 
411.428 
418.514 
393.783 
408.906 
435.262 
372.574 
430.487 
381.38 
410.541 
417.369 
375.083 
411.83 
369.984 
403.171 
400.599 
362.475 
423.409 
402.973 
405.542 
400.904 
400.431 
377.455 
433.659 
397.507 
429.069 
390.902 
377.094 
438.056 
392.061 
426.474 
445.843 
398.153 
366.239 
407.696 
415.614 
434.508 
360.854 
380.263 
457.03 
440.834 
410.133 
360.424 
413.536 
440.373 
356.455 
376.576 
432.018 
381.021 
371.768 
423.771 
359.922 
389.767 
367.524 
381.27 
393.241 
424.116 
401.048 
447.603 
410.227 
421.565 
410.475 
425.295 
389.432 
426.034 
428.226 
439.937 
376.277 
409.721 
383.123 
479.833 
442.374 
417.806 
369.36 
404.362 
424.722 
436.027 
376.397 
387.594 
417.645 
428.174 
428.358 
379.168 
426.285 
349.775 
397.689 
386.904 
396.367 
454.485 
409.74 
396.358 
414.552 
419.319 
428.352 
405.768 
364.73 
441.071 
413.581 
395.992 
383.619 
440.815 
405.464 
453.916 
441.082 
426.25 
365.574 
418.095 
381.181 
479.267 
464.109 
444.328 
393.068 
374.258 
375.378 
387.471 
361.662 
382.919 
386.181 
378.158 
408.581 
410.168 
389.553 
394.541 
429.001 
398.658 
447.351 
445.242 
462.827 
454.915 
423.005 
403.89 
407.052 
365.279 
433.836 
373.098 
405.896 
430.607 
363.725 
396.743 
415.779 
398.983 
417.244 
365.876 
421.048 
416.641 
360.671 
388.011 
386.788 
385.255 
418.305 
397.808 
434.821 
403.574 
435.782 
393.99 
443.832 
399.204 
394.498 
417.166 
441.511 
338.317 
415.774 
447.836 
419.768 
407.324 
434.988 
400.941 
393.534 
410.012 
418.045 
411.169 
412.875 
365.939 
386.419 
479.399 
392.896 
398.259 
388.926 
454.819 
459.995 
412.547 
418.462 
428.382 
493.311 
405.015 
435.689 
416.048 
453.935 
453.659 
471.118 
417.267 
428.292 
392.804 
426.573 
402.206 
387.941 
397.346 
393.756 
424.084 
403.884 
419.44 
388.183 
415.723 
393.483 
445.676 
463.063 
433.302 
484.9 
477.166 
432.263 
407.738 
515.942 
396.094 
494.296 
468.041 
412.143 
353.925 
541.439 
469.94 
452.979 
458.237 
495.186 
471.232 
409.177 
460.674 
414.35 
469.192 
508.467 
449.811 
436.247 
457.023 
426.117 
420.373 
466.833 
487.626 
444.543 
420.657 
478.658 
457.127 
430.849 
454.335 
394.535 
416.205 
454.572 
394.252 
471.936 
464.765 
431.761 
436.011 
410.858 
410.515 
487.155 
401.836 
490.089 
433.073 
453.172 
427.66 
449.748 
456.716 
392.957 
417.315 
425.282 
431.734 
451.632 
471.898 
418.292 
407.474 
452.331 
445.321 
416.062 
434.294 
411.772 
387.156 
406.904 
390.006 
386.591 
472.025 
415.183 
405.64 
422.553 
392.197 
444.504 
468.828 
389.996 
436.258 
427.896 
385.803 
457.795 
477.094 
377.822 
450.64 
527.195 
495.973 
448.925 
369.132 
471.411 
407.555 
441.683 
490.704 
417.652 
517.752 
487.863 
439.092 
422.732 
438.258 
430.192 
463.663 
434.319 
434.244 
451.429 
478.457 
514.368 
446.785 
418.105 
491.548 
474.299 
482.345 
461.587 
460.905 
478.875 
430.249 
470.614 
493.951 
464.965 
422.382 
469.006 
504.236 
437.932 
481.897 
485.279 
418.017 
442.473 
448.518 
385.582 
437.593 
451.462 
459.637 
534.482 
465.52 
487.993 
461.522 
434.517 
500.696 
450.38 
475.527 
472.119 
451.671 
559.184 
469.956 
427.785 
388.544 
449.755 
414.252 
458.729 
450.926 
474.366 
444.174 
463.936 
466.831 
492.423 
454.093 
436.764 
477.669 
532.665 
430.377 
490.405 
473.912 
408.475 
481.132 
504.898 
456.149 
517.155 
434.048 
443.405 
426.544 
521.562 
418.166 
472.059 
481.877 
488.259 
468.767 
510.674 
485.024 
493.531 
489.46 
461.635 
432.302 
459.438 
464.407 
466.405 
498.488 
465.709 
427.083 
485.763 
479.135 
420.047 
452.069 
461.519 
426.087 
453.359 
478.315 
449.932 
516.379 
466.488 
503.424 
449.173 
380.201 
499.513 
457.854 
416.838 
452.308 
423.818 
404.462 
444.847 
445.642 
431.908 
478.022 
455.698 
478.318 
447.112 
471.428 
452.643 
408.628 
503.467 
461.221 
430.175 
445.137 
508.922 
373.248 
537.208 
474.977 
464.911 
480.577 
396.918 
456.124 
475.649 
455.514 
419.439 
466.977 
437.339 
480.425 
443.565 
412.331 
452.552 
446.88 
423.18 
400.349 
442.93 
437.147 
425.399 
409.986 
493.11 
448.465 
465.082 
501.52 
480.546 
448.148 
480.319 
465.796 
429.444 
509.106 
436.322 
414.189 
524.192 
420.402 
441.777 
456.174 
419.415 
413.117 
468.767 
466.434 
488.529 
459.225 
468.78 
434.086 
421.602 
463.375 
470.836 
464.42 
417.13 
494.219 
445.913 
451.018 
529.795 
464.199 
492.686 
520.903 
441.193 
443.125 
523.122 
462.813 
387.199 
468.174 
492.815 
486.955 
454.534 
467.931 
404.297 
443.365 
454.322 
522.1 
456.635 
471.06 
512.26 
464.544 
431.933 
432.771 
431.048 
427.573 
432.857 
473.112 
405.887 
511.996 
446.25 
479.495 
459.294 
494.55 
516.688 
452.914 
498.292 
442.129 
514.574 
429.975 
466.653 
457.37 
495.466 
502.646 
472.552 
483.325 
509.49 
512.311 
537.586 
537.992 
479.524 
489.077 
534.055 
466.388 
410.525 
468.775 
565.176 
441.733 
512.489 
470.134 
464.321 
452.054 
468.364 
457.204 
498.298 
448.557 
460.783 
473.256 
417.218 
438.266 
393.139 
428.092 
448.719 
445.493 
500.907 
430.945 
480.92 
471.046 
424.749 
508.681 
449.315 
442.251 
445.293 
436.943 
414.755 
485.499 
426.542 
475.511 
376.529 
390.247 
431.355 
497.292 
460.927 
475.725 
450.523 
420.049 
436.445 
473.136 
477.642 
469.253 
435.354 
495.625 
491.778 
479.785 
478.81 
481.27 
