ITEM: TIMESTEP
400000
ITEM: NUMBER OF CELLS
1000
ITEM: BOX BOUNDS ss rr pp
0 0.004
0 0.01
-0.5 0.5
ITEM: CELLS f_temp1[*] 
301.621 
275.377 
271.869 
299.999 
303.843 
293.095 
337.104 
317.022 
320.358 
283.543 
281.86 
315.778 
264.646 
282.44 
295.263 
263.013 
281.204 
264.781 
267.586 
268.159 
284.014 
294.559 
295.157 
298.106 
290.008 
283.675 
291.107 
319.085 
287.157 
347.057 
293.398 
328.634 
317.754 
300.17 
336.658 
324.384 
288.84 
295.147 
329.71 
327.315 
292.198 
274.439 
354.755 
308.399 
322.537 
350.677 
300.715 
305.708 
310.407 
340.413 
325.699 
349.82 
301.234 
321.59 
368.322 
340.422 
304.237 
316.223 
321.406 
285.937 
334.465 
284.158 
284.183 
318.195 
343.64 
349.846 
293.963 
327.795 
310.241 
301.962 
318.709 
342.193 
357.481 
308.751 
304.003 
295.23 
328.926 
311.623 
324.302 
313.426 
313.244 
312.461 
313.153 
310.046 
309.819 
297.052 
306.012 
327.065 
316.34 
321.617 
292.019 
306.025 
291.948 
312.267 
324.355 
281.005 
276.612 
349.356 
289.836 
266.743 
281.184 
276.043 
300.31 
297.13 
303.997 
309.143 
309.507 
332.496 
323.067 
275.086 
304.447 
329.279 
297.001 
274.899 
291.04 
282.969 
280.171 
249.182 
283.89 
304.985 
279.932 
296.043 
322.336 
352.335 
320.788 
367.638 
284.641 
315.534 
325.004 
333.556 
286.868 
316.888 
309.175 
342.156 
366.602 
319.255 
330.178 
329.036 
299.349 
341.508 
347.7 
309.32 
294.641 
311.04 
330.125 
309.363 
300.761 
269.148 
304.832 
275.775 
280.671 
278.228 
300.017 
331.804 
283.155 
251.927 
284.543 
297.642 
316.182 
327.581 
320.117 
306.401 
321.883 
287.759 
317.208 
317.611 
330.641 
300.724 
269.579 
297.166 
314.039 
302.132 
310.052 
296.473 
302.328 
282.485 
287.891 
284.903 
294.038 
260.928 
344.553 
319.319 
310.192 
303.369 
292.957 
292.051 
303.145 
303.098 
310.769 
304.441 
321.799 
300.111 
301.614 
327.971 
286.376 
295.139 
291.315 
304.968 
332.394 
356.601 
319.698 
318.515 
329.22 
290.74 
328.3 
388.907 
317.331 
353.354 
334.458 
326.508 
359.641 
313.413 
340.998 
276.338 
289.891 
334.74 
352.435 
315.561 
340.721 
305.166 
309.278 
335.517 
341.631 
325.905 
298.47 
370.376 
326.196 
342.956 
314.785 
323.841 
339.834 
320.352 
315.367 
332.758 
329.704 
315.693 
324.969 
334.669 
294.225 
294.859 
304.483 
301.713 
307.935 
300.004 
308.33 
288.237 
354.832 
324.041 
304.103 
349.669 
322.601 
308.702 
325.854 
323.175 
342.377 
304.267 
342.184 
323.647 
287.392 
330.264 
314.489 
333.297 
318.99 
320.619 
346.319 
328.024 
310.01 
360.9 
381.298 
345.288 
330.534 
331.6 
313.853 
303.986 
342.44 
309.115 
313.537 
302.158 
312.291 
303.585 
320.279 
295.865 
319.099 
368.189 
337.695 
327.621 
332.159 
317.453 
331.78 
291.444 
334.944 
331.71 
300.063 
318.828 
348.947 
321.082 
356.359 
346.597 
366.289 
341.434 
368.066 
342.049 
382.93 
408.54 
399.525 
346.686 
369.606 
350.736 
343.897 
349.763 
338.585 
339.026 
384.739 
328.856 
324.866 
349.095 
390.386 
352.944 
315.551 
339.403 
342.733 
362.719 
378.989 
365.68 
335.163 
356 
317.796 
367.075 
345.317 
327.481 
361.497 
350.844 
367.634 
346.893 
350.031 
359.307 
363.933 
315.361 
320.096 
409.943 
345.554 
303.712 
321.268 
307.263 
324.403 
337.148 
327.594 
374.185 
334.393 
348.388 
338.797 
383.349 
394.178 
335.285 
302.175 
353.186 
336.253 
373.781 
308.939 
309.09 
355.981 
326.687 
352.817 
360.492 
336.352 
363.516 
355.712 
386.761 
328.908 
356.083 
296.055 
395.844 
331.012 
330.803 
358.677 
380.718 
383.935 
348.153 
361.302 
359.533 
380.504 
383.093 
384.75 
352.79 
349.347 
399.621 
320.706 
338.21 
407.64 
322.259 
359.697 
356.903 
351.883 
373.64 
376.709 
366.544 
360.513 
352.405 
380.165 
407.047 
371.106 
357.852 
335.455 
402.425 
390.039 
370.339 
407.715 
363.26 
416.03 
359.3 
328.057 
383.166 
363.532 
339.499 
417.396 
375.73 
424.736 
385.475 
387.453 
375.862 
419.546 
397.791 
359.618 
385.345 
343.422 
416.821 
376.875 
367.538 
317.21 
353.333 
370.671 
370.183 
412.336 
350.169 
416.457 
374.156 
351.013 
367.326 
363.194 
362.131 
363.071 
388.139 
353.068 
346.867 
346.903 
396.992 
420.645 
345.272 
360.118 
374.819 
372.233 
358.872 
353.352 
389.832 
323.14 
344.261 
337.914 
352.197 
385.118 
322.575 
343.361 
360.079 
339.351 
345.45 
337.777 
370.072 
387.71 
363.732 
376.328 
370.468 
346.767 
352.753 
336.416 
325.123 
375.424 
382.494 
393.651 
391.455 
351.548 
358.731 
386.114 
404.866 
407.594 
414.117 
397.401 
402.371 
372.59 
385.85 
392.472 
412.225 
356.362 
394.4 
394.926 
396.839 
407.233 
394.234 
359.454 
380.197 
392.26 
424.874 
349.147 
347.866 
381.288 
363.964 
361.75 
367.563 
364.155 
365.409 
422.373 
408.224 
373.355 
372.169 
371.808 
443.38 
414.889 
396.285 
423.318 
426.481 
410.637 
433.303 
380.869 
388.638 
398.185 
400.492 
358.809 
398.634 
368.197 
368.991 
352.702 
370.755 
392.401 
357.04 
417.232 
339.365 
342.126 
411.086 
377.555 
398.77 
398.828 
388.991 
375.137 
402.594 
384.409 
376.977 
393.359 
402.096 
417.019 
402.589 
378.253 
401.155 
391.832 
413.999 
407.406 
406.602 
384.593 
326.94 
399.55 
412.757 
336.413 
353.266 
332.411 
365.905 
378.465 
385.509 
355.818 
395.386 
376.084 
412.317 
346.629 
367.054 
425.637 
399.653 
423.134 
393.727 
360.749 
383.593 
426.213 
385.816 
348.169 
372.566 
389.327 
362.767 
363.581 
387.549 
365.128 
358.442 
332.713 
349.678 
393.445 
312.205 
423.164 
369.709 
390.017 
367.787 
411.05 
404.854 
361.819 
350.951 
408.058 
433.667 
399.22 
386.877 
395.14 
448.062 
465.865 
353.029 
374.785 
393.373 
434.684 
371.625 
477.423 
389.316 
385.067 
352.967 
354.884 
395.541 
367.125 
376.436 
352.917 
411.149 
376.133 
348.655 
380.617 
386.935 
403.214 
406.709 
335.644 
388.359 
363.337 
367.703 
406.965 
399.198 
374.782 
411.483 
420.395 
394.351 
431.467 
373.508 
374.654 
381.186 
390.226 
419.077 
438.627 
391.048 
395.514 
379.151 
371.878 
430.899 
415.359 
448.72 
455.112 
381.739 
414.019 
433.929 
430.374 
395.38 
403.674 
457.645 
401.13 
369.847 
421.872 
375.015 
409.066 
426.574 
358.741 
406.135 
348.563 
392.205 
378.982 
410.87 
416.955 
370.939 
370.709 
381.992 
372.334 
396.719 
362.668 
368.664 
395.378 
412.453 
461.375 
415.773 
384.552 
354.02 
389.167 
407.493 
404.792 
426.406 
402.107 
399.712 
424.266 
478.109 
394.783 
494.594 
428.039 
446.394 
430.986 
451.797 
400.437 
472.2 
475.86 
448.484 
436.268 
404.807 
448.43 
382.065 
466.266 
381.121 
424.748 
381.486 
427.193 
412.949 
480.183 
381.526 
436.426 
462.011 
453.955 
432.406 
460.863 
423.21 
442.036 
395.396 
391.903 
444.139 
514.065 
475.524 
446.077 
476.951 
424.924 
396.132 
453.326 
447.109 
424.992 
430.127 
424.141 
431.789 
410.643 
409.375 
452.369 
421.597 
352.926 
459.438 
418.242 
495.186 
399.148 
396.781 
444.481 
468.053 
461.486 
411.672 
424.04 
426.625 
396.503 
384.548 
448.364 
378.446 
420.162 
420.543 
426.749 
428.452 
374.337 
428.445 
415.826 
462.473 
487.751 
394.99 
437.582 
498.219 
444.514 
397.224 
429.711 
442.216 
429.912 
506.184 
453.056 
507.014 
439.549 
416.006 
412.295 
384.729 
411.552 
416.833 
400.721 
463.663 
442.434 
472.909 
516.879 
420.444 
465.554 
420.455 
439.569 
489.892 
494.042 
479.881 
472.149 
432.036 
404.866 
438.187 
413.525 
447.497 
458.786 
494.527 
407.112 
475.856 
486.05 
447.596 
423.99 
404.79 
393.002 
458.919 
466.886 
453.704 
464.988 
413.695 
431.094 
446.99 
438.15 
515.099 
463.881 
432.262 
492.679 
444.595 
479.991 
491.257 
511.108 
467.645 
455.066 
484.865 
503.485 
437.109 
474.02 
441.89 
447.065 
439.594 
396.861 
342.505 
503.629 
432.604 
402.545 
462.757 
427.672 
453.286 
439.481 
429.971 
405.641 
413.241 
417.984 
468.512 
504.337 
409.229 
494.046 
468.642 
460.843 
439.27 
496.086 
425.658 
481.877 
387.529 
500.692 
447.022 
425.719 
459.179 
454.99 
434.975 
476.674 
459.826 
491.912 
483.914 
468.665 
413.735 
496.709 
467.534 
468.918 
464.835 
418.857 
481.176 
467.746 
427.027 
453.245 
464.854 
497.216 
449.789 
439.606 
530.857 
519.445 
401.024 
448.293 
450.29 
470.133 
465.018 
491.173 
397.238 
449.466 
479.136 
526.119 
465.645 
465.351 
425.049 
426.142 
492.411 
488.2 
473.886 
515.184 
446.998 
464.311 
449.534 
499.432 
505.137 
422.636 
469.284 
436.895 
448.585 
470.96 
451.985 
460.47 
440.728 
428.393 
543.585 
462.417 
504.965 
452.241 
482.164 
478.667 
451.503 
375.676 
494.256 
469.843 
495.055 
417.586 
432.11 
494.472 
443.866 
436.392 
481.409 
479.081 
407.651 
486.759 
433.085 
471.822 
474.793 
440.434 
497.168 
471.014 
423.748 
445.864 
504.159 
457.226 
432.744 
530.307 
428.876 
491.348 
422.666 
501.909 
443.723 
502.975 
485.791 
527.528 
525.118 
510.031 
451.41 
429.617 
518.492 
525.524 
466.273 
442.778 
466.541 
451.237 
460.883 
480.764 
475.418 
442.616 
554.277 
463.183 
411.91 
503.199 
506.905 
512.752 
512.584 
603.441 
491.416 
501.774 
526.311 
498.282 
479.689 
500.335 
515.943 
460.364 
444.041 
470.822 
509.213 
551.392 
510.865 
544.402 
497.305 
539.576 
483.662 
449.993 
595.267 
489.135 
426.222 
