ITEM: TIMESTEP
9700000
ITEM: NUMBER OF CELLS
1000
ITEM: BOX BOUNDS ss rr pp
0 0.004
0 0.01
-0.5 0.5
ITEM: CELLS f_temp1[*] 
307.424 
289.379 
295.892 
292.062 
309.89 
316.892 
320.891 
270.61 
308.975 
300.132 
290.364 
305.986 
282.308 
308.95 
310.326 
291.583 
281.445 
352.208 
314.15 
308.026 
268.939 
319.042 
324.55 
321.345 
282.968 
294.1 
311.758 
284.11 
320.47 
315.864 
324.789 
301.338 
265.818 
332.938 
321.447 
313.235 
303.755 
296.243 
287.035 
272.437 
354.255 
308.915 
305.234 
347.316 
309.404 
330.21 
331.853 
342.743 
308.782 
338.495 
354.922 
304.388 
288.486 
308.477 
296.172 
338.706 
269.717 
295.751 
272.583 
280.263 
290.59 
287.217 
297.22 
286.509 
286.487 
274.295 
295.153 
328.042 
329.045 
323.027 
298.264 
284.164 
306.703 
329.136 
320.024 
330.079 
290.696 
288.387 
303.132 
296.961 
297.177 
315.743 
319.116 
298.251 
317.012 
295.931 
346.976 
299.084 
352.485 
316.443 
363.621 
344.352 
339.504 
326.003 
323.228 
300.581 
310.965 
335.882 
323.367 
306.801 
291.657 
340.027 
317.395 
321.358 
285.061 
327.68 
353.717 
296.709 
316.792 
327.608 
318.878 
340.932 
313.538 
311.684 
321.316 
328.529 
356.347 
318.831 
318.944 
318.627 
356.857 
339.74 
327.604 
332.775 
344.47 
345.229 
313.702 
313.169 
347.008 
335.257 
335.734 
344.353 
346.043 
317.924 
353.504 
308.15 
341.389 
329.989 
315.629 
330.057 
324.316 
326.135 
344.691 
359.645 
323.2 
335.078 
305.044 
314.851 
337.657 
329.955 
339.429 
287.722 
323.328 
339.203 
349.883 
346.791 
303.82 
343.891 
386.546 
402.646 
356.664 
317.181 
341.77 
338.017 
354.992 
313.743 
337.938 
349.296 
351.899 
334.343 
312.029 
349.054 
348.368 
309.672 
349.416 
321.525 
364.488 
356.428 
366.019 
348.793 
376.839 
356.749 
370.192 
381.242 
359.575 
350.189 
377.489 
380.884 
348.615 
409.124 
395.94 
377.007 
388.327 
375.029 
368.002 
371.944 
391.384 
325.84 
344.247 
351.292 
408.145 
308.827 
328.614 
324.238 
349.454 
386.501 
317.096 
373.33 
345.06 
329.381 
337.227 
354.79 
341.287 
325.741 
330.95 
378.918 
345.025 
365.19 
385.062 
338.379 
352.526 
373.159 
355.75 
332.653 
357.802 
380.28 
381.525 
371.989 
367.274 
407.395 
335.648 
336.807 
365.973 
341.503 
369.662 
375.003 
411.863 
338.722 
375.075 
349.456 
389.778 
389.763 
355.216 
339.953 
379.784 
387.377 
336.434 
378.693 
326.751 
397.292 
378.928 
358.004 
380.689 
356.164 
381.88 
324.03 
368.342 
333.69 
372.78 
358.796 
362.454 
387.411 
405.103 
358.393 
411.192 
411.172 
336.996 
415.222 
369.583 
380.567 
385.244 
342.194 
347.288 
410.934 
359.952 
351.272 
345.142 
335.752 
348.177 
367.429 
370.354 
360.785 
332.984 
362.921 
376.987 
310.169 
358.026 
389.53 
395.649 
338.93 
391.202 
382.218 
393.99 
339.78 
391.013 
380.317 
330.839 
362.673 
409.345 
352.77 
373.766 
367.152 
352.758 
345.804 
408.966 
350.773 
378.322 
338.317 
326.973 
327.235 
341.502 
375.717 
315.976 
349.305 
342.463 
413.101 
335.403 
361.962 
342.983 
358.791 
396.647 
406.449 
377.405 
356.035 
372.101 
410.917 
369.778 
376.008 
402.078 
367.571 
383.457 
368.592 
400.95 
383.817 
353.109 
317.235 
362.324 
383.401 
396.039 
345.908 
394.423 
373.728 
357.071 
375.661 
360.874 
372.449 
357.789 
366.018 
402.31 
355.373 
341.619 
350.249 
355.998 
406.75 
362.136 
395.31 
376.063 
358.831 
334.057 
323.877 
364.948 
343.936 
400.469 
341.652 
407.398 
387.196 
352.065 
350.991 
389.98 
373.482 
380.495 
394.626 
414.488 
332.309 
413.541 
408.003 
362.966 
370.987 
365.187 
335.537 
396.709 
354.839 
391.529 
355.48 
363.907 
347.817 
406.467 
361.219 
365.225 
372.858 
353.793 
379.602 
333.909 
391.9 
430.723 
410.736 
362.334 
400.176 
409.995 
367.732 
368.117 
437.336 
314.993 
410.313 
412.301 
399.094 
360.583 
446.551 
397.575 
387.379 
463.403 
375.909 
433.089 
391.494 
363.319 
333.792 
433.484 
367.802 
365.481 
354.597 
352.537 
407.615 
377.817 
321.721 
355.908 
386.375 
368.515 
366.994 
364.315 
380.129 
383.762 
385.279 
374.719 
360.132 
368.962 
364.022 
348.947 
342.692 
399.024 
423.318 
442.792 
391.133 
383.477 
414.08 
423.777 
373.073 
395.057 
422.854 
423.004 
375.015 
356.824 
359.478 
340.685 
373.547 
403.906 
410.377 
363.428 
365.836 
402.281 
382.483 
402.872 
424.477 
390.799 
369.536 
380.551 
361.814 
394.763 
340.321 
380.61 
346.476 
389.895 
402.552 
423.473 
405.493 
454.818 
451.139 
429.181 
376.495 
422.237 
412.581 
389.736 
370.177 
433.986 
398.127 
354.004 
381.72 
391.973 
431.8 
362.478 
393.593 
389.746 
419.96 
350.551 
375.022 
398.848 
375.99 
416.187 
386.337 
438.811 
420.883 
448.372 
378.047 
372.315 
352.012 
366.849 
445.727 
371.153 
438.875 
445.769 
406.816 
407.996 
470.711 
368.586 
443.519 
399.965 
420.952 
354.905 
379.861 
455.82 
415.624 
502.152 
430.353 
404.03 
422.956 
383.655 
425.021 
336.175 
379.733 
425.223 
396.809 
411.394 
438.351 
401.266 
405.235 
431.544 
417.615 
385.042 
415.578 
398.001 
440.915 
433.269 
432.236 
439.049 
448.496 
453.947 
464.967 
399.983 
394.069 
452.87 
421.288 
418.287 
411.926 
427.739 
413.722 
456.409 
425.657 
395.419 
370.967 
442.699 
426.797 
413.322 
387.988 
368.297 
393.234 
440.955 
453.287 
384.33 
433.355 
441.845 
481.448 
439.309 
442.401 
382.529 
451.53 
425.889 
492.582 
421.987 
416.244 
478.542 
442.627 
441.108 
452.081 
432.603 
429.043 
437.06 
467.908 
439.164 
421.301 
471.817 
422.477 
433.632 
452.312 
413.033 
466.484 
423.042 
468.794 
451.067 
466.697 
396.484 
459.818 
443.076 
409.944 
452.066 
409.886 
371.905 
416.073 
425.731 
435.568 
448.571 
377.409 
404.277 
411.045 
460.97 
465.73 
435.997 
389.941 
399.179 
463.776 
436.364 
417.93 
459.021 
399.559 
429.363 
464.049 
431.239 
467.211 
451.994 
468.626 
498.439 
424.496 
446.937 
411.507 
433.426 
436.638 
424.6 
415.176 
434.859 
456.134 
485.025 
418.633 
455.292 
448.589 
473.221 
431.297 
383.64 
451.183 
457.568 
426.649 
454.612 
443.22 
498.762 
483.058 
426.573 
446.164 
432.285 
454.79 
442.002 
477.897 
452.182 
447.642 
437.708 
448.019 
461.298 
443.134 
427.88 
473.935 
421.728 
402.363 
401.066 
437.434 
480.665 
468.318 
437.067 
494.288 
445.664 
434.926 
388.416 
440.17 
430.621 
431.447 
421.393 
477.835 
391.463 
387.036 
416.226 
420.664 
399.956 
450.058 
443.499 
436.907 
419.571 
445.631 
430.999 
430.893 
430.291 
403.368 
420.03 
466.962 
432.021 
494.152 
449.909 
438.126 
470.557 
427.014 
417.397 
507.931 
430.759 
424.874 
465.324 
457.457 
498.185 
470.894 
421.875 
465.249 
476.023 
528.911 
457.799 
494.783 
406.688 
478.009 
449.428 
456.109 
471.88 
423.576 
459.147 
446.862 
440.098 
406.783 
420.726 
459.649 
475.373 
459.814 
404.317 
479.067 
475.477 
496.603 
474.383 
490.922 
457.547 
483.364 
531.915 
452.949 
482.825 
495.133 
449.497 
431.143 
415.677 
414.607 
433.127 
420.176 
470.7 
446.054 
490.223 
460.612 
441.738 
434.704 
426.136 
432.904 
427.896 
445.638 
469.797 
411.659 
467.879 
447.246 
465.789 
422.181 
489.592 
426.92 
498.012 
418.272 
473.634 
529.146 
466.225 
385.283 
440.477 
485.657 
471.845 
494.795 
497.682 
473.119 
484.611 
473.267 
410.911 
407.218 
388.04 
429.215 
482.701 
421.027 
458.334 
428.96 
485.023 
478.548 
429.944 
511.079 
452.068 
463.323 
510.252 
477.853 
480.962 
405.658 
417.041 
473.729 
423.387 
465.885 
432.551 
509.545 
448.821 
472.419 
417.269 
508.164 
433.839 
402.047 
400.793 
443.279 
473.297 
410.138 
513.273 
439.458 
523.095 
424.461 
487.398 
504.151 
496.376 
537.614 
459.72 
491.468 
504.578 
470.434 
532.223 
515.063 
449.933 
457.555 
481.579 
447.765 
461.085 
425.566 
464.528 
503.942 
511.918 
463.064 
468.123 
480.817 
553.959 
454.211 
461.139 
488.814 
478.327 
420.889 
464.389 
509.689 
488.856 
476.471 
463.667 
445.661 
492.21 
520.532 
458.633 
419.535 
492.156 
468.52 
498.053 
472.026 
495.017 
511.879 
393.511 
423.612 
508.553 
477.166 
524.147 
492.13 
494.631 
511.019 
532.521 
442.336 
465.214 
429.902 
433.695 
470.295 
470.183 
491.195 
446.995 
465.298 
550.105 
440.548 
468.485 
455.639 
432.922 
516.309 
523.657 
479.891 
486.617 
463.356 
394.197 
499.423 
422.557 
522.066 
433.97 
408.522 
522.089 
441.623 
462.645 
535.296 
482.922 
457.322 
434.257 
531.039 
441.751 
475.829 
476.83 
449.757 
521.738 
430.983 
436.063 
459.144 
577.509 
422.964 
453.531 
461.64 
448.356 
506.602 
439.488 
499.339 
457.085 
468.06 
421.427 
465.76 
474.974 
426.344 
485.467 
504.718 
479.519 
543.592 
460.788 
476.929 
500.654 
544.595 
548.406 
464.827 
486.81 
459.135 
463.276 
510.857 
486.395 
512.545 
485.093 
505.805 
465.079 
494.987 
483.266 
485.553 
482.336 
478.574 
508.427 
540.02 
541.305 
439.004 
529.791 
484.633 
418.178 
568.368 
443.164 
444.75 
443.553 
552.893 
445.201 
513.449 
499.34 
487.793 
460.586 
460.958 
431.147 
550.88 
461.934 
478.317 
497.753 
434.533 
509.429 
451.091 
470.758 
498.218 
447.416 
455.8 
461.199 
396.308 
460.02 
402.375 
453.778 
506.148 
457.814 
438.966 
494.034 
437.789 
534.081 
504.993 
431.09 
502.265 
493.237 
527.123 
478.041 
418.619 
