ITEM: TIMESTEP
2000000
ITEM: NUMBER OF CELLS
1000
ITEM: BOX BOUNDS ss rr pp
0 0.004
0 0.01
-0.5 0.5
ITEM: CELLS f_temp1[*] 
309.12 
287.297 
290.84 
306.553 
302.134 
286.077 
324.429 
314.577 
275.888 
299.411 
284.924 
294.138 
291.9 
332.281 
299.838 
318.156 
287.216 
301.361 
297.582 
283.194 
277.114 
284.571 
309.426 
270.841 
309.126 
310.329 
283.156 
321.333 
327.67 
321.023 
302.593 
301.212 
288.9 
313.827 
324.095 
326.923 
369.473 
324.828 
305.041 
273.736 
296.571 
319.729 
332.029 
332.282 
283.657 
293.672 
311.796 
290.01 
285.118 
301.58 
301.545 
343.499 
296.574 
340.503 
313.928 
342.737 
303.296 
292.586 
333.379 
311.076 
290.829 
326.9 
312.533 
371.146 
359.437 
309.56 
359.511 
324.544 
342.641 
332.569 
311.887 
314.339 
345.11 
309.486 
351.589 
297.63 
351.489 
305.657 
338.014 
311.592 
324.854 
323.303 
302.097 
335.032 
308.644 
301.287 
340.38 
283.125 
312.052 
303.214 
319.895 
308.3 
330.208 
283.577 
286.996 
349.3 
316.499 
320.166 
320.993 
326.242 
314.506 
318.182 
332.671 
330.736 
342.014 
329.235 
364.811 
352.139 
339.005 
348.952 
333.509 
343.835 
347.356 
306.852 
351.876 
309.59 
341.581 
359.701 
299.708 
326.712 
301.799 
352.183 
332.126 
334.209 
319.843 
356.977 
337.913 
327.218 
287.899 
333.544 
332.708 
350.779 
330.92 
298.314 
314.453 
335.727 
335.209 
326.522 
344.479 
328.455 
308.043 
343.038 
309.992 
315.927 
316.627 
363.059 
288.87 
321.882 
331.412 
286.895 
338.795 
338.958 
348.255 
339.629 
359.168 
321.233 
352.349 
353.683 
370.721 
371.968 
349.081 
316.713 
349.272 
320.309 
326.762 
369.047 
362.246 
380.073 
332.939 
359.667 
341.774 
364.228 
337.771 
376.074 
338.518 
358.305 
370.089 
356.581 
340.241 
376.547 
354.488 
311.312 
341.955 
363.316 
333.59 
387.165 
397.717 
339.651 
322.024 
334.406 
369.952 
344.086 
352.503 
355.426 
345.064 
348.692 
360.126 
347.021 
360.28 
326.158 
361.726 
359.243 
370.616 
374.764 
352.097 
333.703 
339.796 
367.829 
354.344 
368.848 
376.819 
363.069 
335.595 
395.996 
330.443 
360.775 
389.787 
381.973 
355.688 
314.65 
360.06 
357.894 
356.429 
377.005 
369.442 
369.47 
350.164 
340.88 
363.388 
349.889 
367.082 
330.397 
403.444 
366.704 
355.211 
389.129 
356.201 
368.921 
372.674 
361.08 
415.631 
394.376 
343.478 
406.305 
406.135 
315.518 
367.834 
332.606 
363.745 
332.503 
371.762 
383.755 
408.161 
359.465 
336.874 
356.919 
345.809 
370.406 
382.965 
348.929 
348.688 
395.427 
327.613 
370.177 
369.493 
360.967 
381.343 
345.55 
384.882 
361.63 
356.366 
387.638 
403.002 
391.106 
348.605 
337.365 
358.449 
367.588 
355.519 
365.518 
377.545 
395.348 
354.217 
353.731 
350.831 
349.641 
355.009 
352.534 
354.083 
361.695 
364.34 
401.157 
363.799 
385.261 
374.847 
332.886 
386.101 
322.392 
394.959 
409.64 
402.936 
347.815 
385.348 
378.686 
360.232 
387.137 
368.906 
411.723 
375.804 
422.394 
369.755 
394.904 
378.36 
405.392 
389.748 
351.789 
345.957 
390.971 
420.153 
342.598 
353.876 
373.835 
364.002 
356.756 
402.492 
383.038 
362.642 
390.677 
361.692 
369.451 
349.833 
367.577 
369.449 
367.996 
366.513 
398.571 
407.577 
370.028 
363.886 
402.144 
358.334 
392.586 
406.412 
376.374 
374.301 
392.082 
404.052 
427.081 
392.532 
366.882 
403.411 
375.274 
414.987 
434.728 
380.891 
380.474 
382.219 
411.372 
372.772 
333.028 
362.87 
362.715 
418.994 
433.382 
391.418 
424.909 
391.988 
418.828 
390.83 
383.76 
430.78 
408.175 
433.829 
398.001 
421.977 
385.986 
388.365 
340.91 
404.305 
458.579 
423.992 
375.531 
374.732 
375.51 
375.647 
370.846 
331.204 
381.89 
361.721 
389.96 
410.739 
471.18 
369.002 
382.165 
361.298 
374.933 
381.526 
409.536 
357.254 
336.625 
366.745 
373.84 
347.466 
334.579 
326.242 
325.989 
309.807 
353.516 
361.823 
368.205 
346.33 
375.232 
368.664 
360.549 
392.636 
378.053 
391.645 
391.92 
390.936 
365.511 
383.908 
360.233 
386.068 
424.853 
416.426 
365.224 
403.571 
354.489 
376.032 
350.215 
338.52 
355.64 
357.997 
393.301 
422.243 
435.308 
405.084 
392.303 
399.28 
444.528 
443.695 
383.143 
368.426 
390.29 
400.389 
385.583 
322.736 
415.822 
351.158 
355.39 
409.647 
397.992 
431.809 
397.915 
432.669 
408.18 
479.729 
396.625 
409.996 
475.062 
421.943 
366.638 
402.913 
393.59 
439.73 
402.399 
419.429 
408.464 
424.715 
420.964 
387.942 
413.094 
394.429 
414.704 
433.128 
411.042 
458.971 
399.44 
405.761 
407.187 
410.18 
421.437 
396.699 
456.43 
450.022 
417.431 
386.258 
429.957 
424.373 
415.659 
400.393 
431.783 
406.165 
391.939 
424.224 
360.634 
464.894 
443.404 
412.823 
374.086 
394.866 
399.731 
418.74 
486.786 
378.678 
366.535 
417.122 
425.513 
409.046 
393.545 
461.109 
400.095 
425.519 
391.82 
404.441 
340.24 
383.297 
373.471 
384.981 
366.324 
422.988 
395.612 
398.429 
441.844 
427.956 
398.092 
389.73 
379.27 
372.319 
404.943 
380.841 
443.971 
442.382 
442.299 
450.432 
433.525 
398.032 
322.18 
458.093 
403.631 
424.68 
409.087 
403.123 
378.288 
376.574 
386.752 
439.507 
399.823 
373.797 
337.389 
412.15 
438.096 
438.511 
362.499 
409.795 
377.199 
389.512 
367.667 
400.741 
395.386 
455.481 
438.965 
433.874 
411.203 
339.473 
430.623 
426.809 
452.061 
421.283 
444.754 
429.083 
447.866 
388.137 
381.216 
438.783 
469.542 
457.113 
363.122 
429.702 
395.512 
455.717 
426.21 
343.837 
438.537 
450.755 
405.622 
433.005 
337.838 
411.662 
430.505 
394.505 
381.227 
445.993 
433.019 
375.481 
389.906 
422.779 
417.253 
447.042 
428.391 
412.529 
386.589 
424.477 
420.131 
428.58 
418.988 
428.069 
438.611 
415.674 
402.882 
403.939 
385.343 
401.207 
403.729 
476.218 
429.862 
454.523 
421.654 
428.448 
459.949 
415.999 
375.3 
397.839 
418.255 
383.969 
395.879 
354.125 
411.308 
372.057 
381.167 
375.477 
372.206 
391.386 
411.648 
445.784 
382.219 
405.925 
407.536 
391.526 
396.18 
423.954 
412.329 
443.749 
414.031 
419.768 
418.179 
422.64 
434.754 
446.771 
468.546 
401.522 
429.212 
429.998 
409.899 
499.146 
395.4 
405.584 
432.003 
416.405 
433.17 
472.78 
404.042 
408.044 
465.211 
460.272 
422.978 
493.225 
416.975 
387.664 
416.206 
541.743 
396.698 
456.296 
431.528 
479.306 
394.733 
404.723 
497.661 
415.179 
438.198 
411.59 
423.361 
386.445 
404.678 
388.635 
412.987 
448.697 
443.267 
426.28 
429.726 
422.375 
417.918 
422.421 
446.737 
428.55 
390.942 
380.234 
464.928 
418.508 
434.308 
398.31 
410.193 
386.354 
401.23 
398.953 
426.716 
438.089 
448.888 
503.898 
453 
427.529 
432.396 
446.935 
424.115 
425.644 
434.96 
428.655 
407.961 
449.048 
411.089 
464.888 
495.146 
481.965 
468.538 
426.271 
401.828 
414.428 
402.522 
460.57 
483.405 
395.929 
426.407 
437.05 
391.14 
412.628 
489.699 
510.952 
424.47 
460.707 
489.81 
437.989 
442.751 
454.258 
437.979 
468.893 
408.265 
410.554 
404.415 
474.174 
447.945 
486.063 
513.344 
459.557 
455.782 
432.372 
431.908 
448.812 
447.081 
449.283 
507.598 
368.575 
442.368 
409.338 
439.253 
420.924 
450.81 
477.843 
482.157 
403.912 
479.217 
472.917 
460.494 
477.926 
460.862 
464.625 
525.089 
462.59 
501.413 
528.666 
459.091 
451.03 
440.902 
502.2 
462.33 
425.212 
553.09 
526.99 
427.29 
436.517 
470.018 
454.072 
505.52 
464.836 
471.322 
480.25 
463.637 
468.239 
480.315 
525.049 
482.26 
482.845 
448.655 
543.895 
474.869 
431.42 
470.419 
434.431 
470.248 
416.289 
514.655 
497.466 
467.161 
471.335 
441.918 
514.748 
472.981 
463.768 
487.411 
490.353 
482.845 
467.133 
483.338 
497.87 
510.902 
543.089 
479.633 
408.787 
517.379 
485.839 
490.787 
439.442 
451.845 
443.232 
490.79 
437.292 
475.779 
428.561 
504.398 
477.761 
506.536 
426.763 
440.639 
527.863 
430.93 
475.012 
413.858 
445.137 
518.146 
558.145 
446.11 
440.867 
481.801 
464.852 
534.489 
507.52 
506.138 
482.612 
524.711 
480.827 
507.834 
465.72 
430.142 
505.607 
422.949 
536.229 
479.86 
472.524 
471.725 
503.227 
462.905 
486.161 
484.733 
451.18 
486.892 
504.352 
481.656 
512.844 
427.189 
535.195 
490.235 
479.337 
480.959 
393.361 
519.93 
450.345 
475.468 
483.444 
490.051 
470.903 
515.987 
567.594 
460.994 
536.708 
482.252 
497.726 
531.689 
433.366 
431.864 
516.596 
455.109 
459.7 
481.325 
473.045 
460.727 
523.33 
479.661 
470.985 
538.431 
456.925 
524.659 
519.016 
432.31 
521.844 
502.263 
510.818 
481.167 
486.22 
427.274 
494.773 
519.693 
511.413 
472.457 
483.148 
523.121 
475.707 
494.913 
497.296 
517.937 
516.858 
484.269 
500.037 
474.686 
474.71 
489.638 
447.824 
476.312 
475.583 
416.798 
490.166 
451.269 
437.238 
548.696 
414.94 
480.839 
478.318 
481.207 
486.406 
521.857 
506.037 
492.502 
532.33 
456.113 
637.632 
501.556 
492.072 
566.263 
493.89 
588.152 
520.047 
405.848 
519.462 
511.624 
604.073 
535.293 
558.519 
418.375 
542.843 
429.834 
446.946 
535.41 
537.581 
520.89 
490.364 
515.732 
487.14 
468.542 
440.913 
494.306 
529.667 
456.565 
503.061 
493.363 
496.798 
424.83 
593.312 
459.712 
554.281 
486.707 
516.047 
575.901 
512.286 
482.882 
500.039 
493.839 
443.496 
502.498 
499.88 
540.461 
494.213 
537.775 
