ITEM: TIMESTEP
2800000
ITEM: NUMBER OF CELLS
1000
ITEM: BOX BOUNDS ss rr pp
0 0.004
0 0.01
-0.5 0.5
ITEM: CELLS f_temp1[*] 
309.124 
303.031 
324.859 
299.152 
273.525 
309.024 
291.338 
302.528 
285.025 
306.9 
330.817 
302.533 
314.553 
359.063 
329.744 
301.946 
300.679 
333.255 
295.885 
300.408 
298.29 
334.67 
285.561 
279.186 
314.038 
313.619 
282.107 
324.394 
307.508 
305.733 
315.309 
331.199 
301.124 
328.76 
273.029 
307.202 
311.294 
293.55 
271.981 
297.339 
329.423 
299.397 
308.487 
288.143 
299.328 
310.531 
288.918 
304.959 
315.018 
302.676 
299.005 
320.665 
316.227 
318.04 
284.932 
281.834 
296.161 
333.412 
325.935 
291.196 
313.264 
349.217 
328.975 
348.281 
372.512 
320.619 
362.878 
320.487 
324.495 
363.558 
354.098 
333.555 
321.06 
362.819 
322.044 
309.974 
363.467 
349.18 
331.803 
372.267 
347.802 
332.985 
353.826 
376.405 
363.928 
339.045 
335.076 
344.887 
360.176 
345.875 
332.846 
320.239 
368.154 
287.738 
311.504 
343.002 
320.042 
323.975 
324.81 
317.061 
353.22 
334.246 
318.123 
298.166 
344.513 
349.233 
320.339 
352.588 
315.767 
346.989 
341.246 
352.911 
323.089 
353.507 
357.019 
339.536 
328.767 
322.236 
307.448 
342.978 
340.078 
336.818 
325.22 
303.098 
337.704 
333.615 
322.51 
343.46 
321.808 
337.589 
346.182 
361.631 
361.776 
316.639 
353.94 
372.132 
316.033 
281.363 
349.787 
357.54 
328.539 
334.469 
395.235 
362.552 
344.206 
358.332 
347.109 
362.299 
349.854 
360.683 
355.716 
326.307 
356.757 
360.728 
335.364 
331.981 
332.755 
330.924 
358.335 
349.333 
356.744 
359.151 
410.992 
325.893 
345.74 
391.775 
363.806 
342.019 
306.526 
349.061 
393.145 
370.075 
336.57 
338.57 
339.179 
323.014 
372.168 
328.763 
423.135 
317.156 
349.113 
346.94 
383.49 
364.453 
361.949 
374.143 
382.967 
360.598 
357.316 
314.512 
343.318 
333.303 
327.695 
312.419 
326.174 
340.862 
295.627 
394.982 
318.434 
369.972 
355.45 
357.87 
346.032 
355.515 
352.485 
361.454 
338.609 
325.472 
383.314 
356.438 
381.802 
344.305 
381.438 
335.408 
358.216 
348.524 
371.253 
353.543 
384.787 
391.462 
325.033 
343.096 
390.108 
341.33 
336.712 
346.715 
350.799 
374.113 
336.24 
360.357 
413.547 
372.753 
353.732 
382.061 
378.612 
372.428 
356.133 
360.166 
352.328 
366.053 
398.335 
358.278 
351.453 
395.915 
375.162 
356.869 
372.811 
372.769 
382.21 
383.115 
362.337 
334.178 
369.262 
385.986 
369.324 
350.141 
361.83 
350.78 
347.411 
340.986 
367.42 
342.996 
381.234 
342.964 
395.041 
330.038 
369.149 
402.367 
363.121 
355.079 
389.042 
430.567 
328.72 
375.433 
349.232 
377.972 
368.353 
369.937 
368.046 
372.252 
369.678 
371.312 
387.741 
399.658 
400.114 
392.005 
376.315 
358.448 
405.051 
350.207 
361.597 
381.712 
379.524 
359.783 
323.543 
390.058 
358.7 
336.314 
357.608 
379.229 
380.843 
334.267 
392.597 
321.908 
349.74 
334.779 
330.431 
366.845 
351.995 
364.481 
378.506 
348.502 
380.742 
394.891 
345.591 
360.32 
375.298 
331.781 
378.676 
355.701 
340.803 
375.138 
361.096 
327.723 
374.053 
362.922 
331.219 
344.124 
371.212 
360.056 
308.306 
320.44 
385.974 
329.123 
343.636 
377.913 
374.952 
336.279 
371.071 
327.349 
385.607 
381.141 
364.562 
386.57 
355.78 
372.835 
421.183 
357.453 
391.64 
349.584 
382.591 
409.599 
370.395 
434.322 
369.452 
402.531 
376.775 
356.908 
399.413 
379.923 
365.627 
392.073 
408.299 
430.674 
370.633 
358.795 
376.43 
363.292 
334.822 
368.702 
386.481 
375.83 
315.492 
395.035 
378.058 
413.619 
366.719 
396.221 
403.811 
426.865 
375.044 
401.033 
388.294 
372.956 
447.708 
384.53 
378.893 
388.441 
337.305 
361.466 
365.65 
378.561 
366.359 
335.727 
348.689 
379.558 
321.633 
386.859 
381.19 
434.478 
371.967 
391.072 
421.561 
353.913 
370.584 
450.579 
345.144 
353.624 
393.386 
405.554 
349.296 
375.624 
370.1 
379.066 
383.425 
406.068 
399.86 
381.721 
403.078 
380.941 
400.008 
396.618 
336.427 
398.048 
366.293 
383.74 
402.089 
398.608 
388.543 
391.849 
400.43 
379.425 
426.067 
383.987 
398.075 
444.639 
416.393 
393.399 
415.923 
358.991 
396.193 
392.495 
409.719 
422.5 
358.623 
411.931 
409.768 
383.557 
383.607 
450.901 
352.139 
407.646 
405.785 
445.079 
398.001 
417.033 
414.991 
444.529 
413.388 
426.286 
436.297 
413.43 
406.886 
417.28 
419.066 
423.518 
377.866 
423.545 
435.842 
427.229 
457.178 
393.184 
396.906 
383.796 
393.499 
423.709 
385.586 
436.916 
365.038 
422.805 
401.606 
390.16 
400.948 
397.328 
465.208 
365.596 
408.155 
489.108 
419.987 
411.865 
419.531 
397.394 
416.084 
391.18 
396.408 
412.953 
404.084 
449.581 
441.505 
393.991 
410.3 
407.913 
397.936 
388.838 
463.315 
469.64 
472.017 
432.097 
463.712 
457.824 
418.872 
435.652 
378.259 
478.326 
402.725 
408.045 
418.377 
452.458 
389.518 
407.101 
424.117 
412.337 
412.71 
383.936 
401.78 
380.641 
392.309 
433.139 
358.054 
424.004 
410.514 
379.252 
358.298 
412.136 
396.073 
398.186 
401.557 
326.684 
439.028 
405.407 
419.066 
413.264 
443.304 
386.752 
422.213 
420.38 
375.377 
395.268 
410.565 
410.459 
370.847 
413.729 
400.431 
366.615 
441.232 
371.856 
383.39 
476.761 
427.284 
428.409 
413.203 
382.57 
436.33 
411.83 
424.294 
403.944 
413.438 
392.141 
394.278 
449.279 
371.819 
383.756 
503.312 
410.185 
414.178 
441.957 
435.127 
440.297 
419.512 
406.249 
394.863 
374.273 
355.074 
454.152 
445.651 
422.546 
415.034 
419.166 
409.811 
461.683 
397.893 
382.816 
418.339 
400.202 
472.245 
405.733 
440.047 
376.478 
395.583 
390.542 
386.137 
394.414 
359.378 
405.567 
435.445 
451.189 
416.598 
411.317 
413.378 
405.73 
421.956 
360.755 
407.932 
430.915 
474.404 
420.402 
424.449 
416.42 
453.527 
446.529 
464.622 
389.731 
463.936 
465.584 
482.906 
435.621 
421.364 
378.718 
411.386 
418.958 
518.316 
449.71 
451.271 
453.555 
464.063 
461.37 
397.541 
456.894 
415.241 
463.512 
479.148 
423.933 
441.185 
416.661 
417.314 
442.479 
442.43 
467.044 
467.48 
442.105 
444.776 
478.309 
546.753 
531.199 
487.263 
446.239 
458.953 
463.246 
422.915 
446.424 
484.682 
479.366 
417.705 
467.557 
485.778 
450.59 
412.819 
498.806 
452.938 
475.207 
378.17 
401.291 
496.649 
421.708 
496.64 
477.859 
437.732 
494.823 
449.462 
476.605 
455.306 
444.397 
499.395 
478.035 
427.571 
428.903 
425.226 
442.895 
413.266 
471.56 
378.424 
445.729 
432.282 
464.88 
426.672 
386.487 
410.402 
386.882 
442.065 
456.726 
449.994 
449.185 
446.716 
448.716 
467.74 
411.359 
440.912 
410.284 
444.367 
432.38 
484.982 
405.047 
423.958 
456.28 
437.84 
454.401 
407.83 
443.158 
464.032 
480.689 
440.327 
462.234 
487.22 
422.028 
433.351 
516.15 
488.888 
507.347 
414.426 
501.435 
466.639 
492.011 
423.141 
420.507 
419.175 
464.699 
444.39 
427.511 
365.6 
462.586 
490.797 
455.511 
426.727 
445.727 
407.866 
468.412 
413.775 
400.764 
431.977 
446.681 
460.57 
451.984 
451.12 
443.1 
467.189 
440.381 
469.081 
449.389 
494.179 
428.722 
468.117 
466.31 
444.082 
510.685 
448.934 
452.456 
490.136 
480.849 
450.172 
527.018 
441.407 
486.849 
401.003 
507.456 
475.184 
434.043 
493.779 
452.921 
448.686 
506.943 
482.024 
447.604 
436.114 
454.626 
455.188 
409.27 
416.192 
465.457 
404.7 
438.394 
384.4 
454.866 
442.358 
439.941 
444.978 
463.867 
475.916 
472.5 
493.992 
523.965 
443.569 
450.51 
464.71 
489.393 
457.489 
484.765 
423.355 
431.558 
492.21 
425.953 
457.018 
454.351 
458.429 
466.175 
476.489 
458.108 
493.465 
474.597 
426.643 
483.463 
441.414 
440.703 
463.328 
537.063 
527.857 
506.828 
573.054 
505.642 
451.086 
554.217 
428.618 
487.386 
448.569 
524.964 
470.154 
406.876 
411.527 
552.039 
524.356 
551.558 
435.606 
519.287 
458.247 
486.275 
457.789 
481.85 
496.672 
511.686 
469.568 
536.535 
496.737 
522.011 
569.927 
443.835 
537.33 
471.776 
467.037 
502.743 
477.616 
439.258 
483.402 
443.7 
449.915 
450.193 
463.631 
387.428 
463.077 
520.081 
385.482 
504.86 
541.214 
449.4 
412.245 
473.677 
503.669 
415.953 
532.527 
461.257 
478.257 
441.044 
469.402 
500.832 
596.178 
448.383 
489.336 
468.91 
507.764 
477.23 
432.283 
476.415 
502.15 
455.792 
496.402 
435.169 
518.759 
444.72 
427.912 
521.569 
452.324 
503.776 
509.252 
454.207 
523.098 
416.147 
523.968 
460.693 
447.584 
465.997 
455.047 
434.403 
464.329 
494.871 
475.913 
522.45 
445.102 
420.888 
515.691 
431.125 
501.482 
520.712 
495.34 
474.222 
460.206 
481.047 
439.178 
458.533 
498.629 
500.592 
492.32 
414.254 
434.1 
418.756 
531.537 
470.895 
487.689 
500.839 
453.779 
478.392 
498.234 
533.299 
556.829 
523.447 
501.814 
486.505 
476.482 
526.909 
479.34 
506.339 
515.637 
479.001 
525.19 
567.975 
475.987 
525.725 
462.894 
546.052 
452.484 
482.464 
477.676 
499.492 
445.89 
485.543 
530.855 
455.908 
520.139 
512.06 
505.306 
514.996 
496.365 
442.244 
478.601 
530.397 
474.182 
473.437 
501.857 
521.476 
529.176 
509.262 
523.789 
523.133 
500.129 
464.349 
467.126 
548.543 
516.904 
488.656 
555.1 
404.716 
507.472 
481.694 
482.942 
487.088 
470.218 
532.964 
536.358 
502.512 
451.93 
531.094 
508.605 
479.253 
