ITEM: TIMESTEP
6300000
ITEM: NUMBER OF CELLS
1000
ITEM: BOX BOUNDS ss rr pp
0 0.004
0 0.01
-0.5 0.5
ITEM: CELLS f_temp1[*] 
299.763 
276.562 
316.646 
283.976 
292.564 
311.347 
270.179 
318.518 
319.126 
301.638 
284.031 
289.398 
295.465 
310.533 
280.9 
302.652 
295.758 
297.005 
307.09 
307.894 
318.845 
279.625 
304.465 
297.963 
312.946 
311.866 
304.64 
277.707 
297.652 
304.867 
336.189 
336.482 
284.586 
300.064 
304.173 
334.123 
308.205 
300.551 
310.977 
320.413 
322.374 
281.188 
324.492 
301.398 
286.885 
330.276 
303.362 
264.326 
304.548 
270.043 
322.616 
296.351 
316.963 
309.561 
300.158 
288.972 
270.333 
282.733 
269.82 
279.338 
304.266 
277.519 
308.431 
313.91 
333.742 
302.347 
308.388 
363.55 
312.466 
335.47 
303.251 
301.619 
301.808 
295.322 
283.314 
315.601 
292.044 
310.664 
312.931 
320.72 
329.884 
274.224 
284.097 
310.408 
319.469 
317.485 
336.398 
309.176 
332.646 
295.666 
323.83 
348.726 
320.068 
299.773 
322.076 
309.794 
325.42 
293.961 
309.678 
294.14 
325.313 
311.226 
322.921 
340.009 
312.434 
341.745 
337.45 
264.977 
287.905 
313.873 
320.737 
310.328 
314.87 
324.095 
368.015 
328.69 
314.157 
346.052 
288.911 
311.779 
323.465 
325.341 
294.714 
332.509 
280.341 
286.88 
331.976 
317.62 
328.717 
318.369 
315.493 
328.246 
310.489 
303.771 
322.324 
307.147 
296.257 
334.875 
301.553 
350.676 
328.659 
365.465 
311.217 
360.214 
323.4 
375.396 
306.738 
332.411 
307.142 
341.556 
323.325 
323.8 
329.704 
345.695 
345.29 
307.981 
327.336 
366.24 
376.385 
341.246 
346.632 
313.501 
348.489 
315.413 
356.887 
325.076 
381.534 
352.739 
353.473 
308.99 
402.858 
328.907 
336.865 
379.881 
313.212 
337.651 
369.156 
334.901 
291.367 
368.21 
309.436 
337.492 
358.93 
338.457 
348.715 
342.245 
359.402 
338.75 
373.032 
370.934 
347.878 
380.658 
350.932 
371.243 
343.05 
371.509 
419.347 
387.698 
327.412 
357.978 
345.657 
379.384 
343.781 
332.132 
325.375 
362.313 
349.213 
302.677 
306.26 
353.941 
347.352 
359.089 
362.433 
320.505 
363.279 
371.17 
380.854 
370.64 
329.682 
369.414 
336.078 
383.551 
340.88 
345.04 
343.9 
342.086 
344.306 
334.024 
328.597 
340.667 
324.403 
324.013 
331.715 
381.39 
375.77 
307.92 
359.385 
403.998 
406.834 
348.237 
350.094 
307.538 
364.937 
390.679 
383.543 
342.622 
394.118 
352.96 
362.069 
350.073 
384.414 
326.834 
324.796 
370.509 
347.985 
370.541 
368.591 
356.546 
415.13 
351.815 
411.851 
369.578 
380.538 
377.688 
389.22 
363.233 
359.474 
391.474 
354.946 
360.916 
359.496 
342.875 
358.828 
362.226 
346.178 
363.293 
347.263 
349.047 
341.855 
376.39 
380.925 
375.995 
331.938 
358.965 
389.314 
364.714 
396.56 
342.432 
337.281 
359.287 
388.571 
370.431 
348.354 
365.401 
360.378 
401.996 
370.418 
389.123 
407.129 
439.25 
409.587 
464.345 
388.033 
398.357 
384.05 
454.247 
402.117 
425.706 
426.882 
361.568 
392.024 
387.112 
373.445 
405.43 
398.563 
445.218 
386.69 
383.737 
404.978 
412.659 
356.701 
398.02 
404.712 
372.296 
410.344 
434.17 
393.692 
388.041 
413.123 
358.549 
372.854 
404.334 
423.419 
410.881 
396.811 
418.594 
367.663 
333.186 
373.225 
417.044 
371.334 
363.325 
445.979 
382.035 
408.514 
357.277 
363.364 
413.375 
428.82 
383.952 
400.032 
393.174 
402.606 
347.075 
376.026 
396.995 
410.57 
329.204 
388.695 
418.776 
423.812 
320.473 
397.806 
387.092 
377.475 
391.734 
407.147 
434.405 
363.39 
433.955 
434.646 
377.265 
395.016 
396.392 
361.982 
431.905 
426.382 
389.659 
406.477 
387.667 
434.19 
401.694 
399.109 
405.202 
372.266 
375.083 
367.117 
406.034 
393.985 
398.138 
393.915 
402.597 
370.637 
450.6 
432.47 
374.969 
397.146 
414.654 
364.03 
394.179 
411.972 
425.014 
361.273 
379.221 
389.179 
396.002 
431.843 
361.116 
389.469 
419.558 
393.81 
490.605 
478.136 
423.933 
448.751 
462.473 
380.748 
375.205 
364.419 
434.025 
415.412 
387.909 
356.215 
423.026 
392.162 
472.672 
361.094 
459.535 
439.547 
454.867 
400.349 
434.729 
338.934 
340.973 
441.523 
391.407 
395.704 
412.536 
409.751 
418.889 
375.582 
416.84 
477.456 
375.534 
476.309 
405.78 
477.553 
423.47 
427.489 
431.925 
385.279 
400.911 
389.363 
392.903 
416.617 
423.844 
409.142 
427.615 
409.88 
461.174 
412.924 
477.997 
390.956 
478.355 
390.198 
421.295 
457.563 
449.223 
442.639 
447.751 
432.888 
374.949 
460.663 
381.769 
386.957 
440.107 
410.541 
420.034 
434.28 
390.943 
387.706 
436.476 
449.626 
445.828 
394.768 
396.777 
392.501 
435.378 
407.591 
406.929 
447.77 
447.741 
406.096 
422.447 
415.26 
443.359 
411.449 
380.526 
457.363 
412.361 
397.723 
406.496 
437.473 
429.906 
411.113 
453.894 
353.393 
438.47 
453.509 
387.447 
403.842 
407.235 
402.523 
388.332 
453.006 
336.14 
436.509 
442.168 
418.615 
433.807 
430.679 
419.361 
402.637 
423.454 
499.051 
418.137 
400.869 
465.211 
417.432 
395.434 
453.698 
396.65 
408.733 
373.757 
438.249 
402.582 
449.912 
445.379 
334.393 
479.341 
432.036 
468.97 
422.617 
424.133 
419.388 
415.787 
416.08 
408.867 
411.446 
434.516 
405.425 
459.513 
433.286 
386.541 
415.977 
417.844 
413.162 
446.81 
390.792 
386.739 
414.454 
443.31 
429.45 
432.814 
378.835 
450.842 
394.692 
423.084 
413.293 
358.923 
382.053 
473.184 
424.507 
487.454 
421.333 
427.047 
459.312 
407.34 
446.771 
449.408 
448.816 
452.965 
451.94 
435.201 
486.13 
491.97 
396.26 
410.414 
457.298 
406.533 
511.308 
431.7 
425.28 
448.946 
464.572 
471.708 
420.463 
437.759 
482.325 
493.515 
511.522 
400.857 
422.184 
471.689 
416.248 
419.362 
454.743 
468.914 
450.861 
447.205 
473.354 
403.03 
488.704 
473.539 
451.77 
451.239 
380.164 
385.283 
399.94 
396.039 
406.813 
428.009 
417.869 
437.847 
448.328 
443.774 
445.621 
424.014 
396.971 
459.651 
439.324 
418.517 
396.286 
399.374 
434.197 
454.842 
441.408 
416.352 
462.431 
427.9 
427.038 
429.605 
396.635 
444.605 
488.001 
454.991 
522.071 
477.108 
463.034 
439.179 
451.148 
485.408 
494.884 
443.248 
432.047 
450.139 
425.205 
449.705 
428.688 
477.569 
465.204 
476.779 
498.28 
424.741 
500.829 
486.075 
438.158 
466.419 
466.067 
417.326 
487.936 
420.979 
437.322 
360.27 
454.471 
442.27 
442.403 
408.847 
399.21 
516.206 
470.861 
495.438 
445.394 
491.687 
453.565 
419.727 
465.877 
459.378 
446.735 
415.396 
510.886 
547.041 
483.047 
521.442 
419.222 
508.24 
433.54 
492.974 
453.122 
494.703 
426.954 
509.403 
481.711 
410.211 
464.088 
469.744 
538.305 
439.721 
493.492 
421.855 
399.688 
456.81 
446.285 
455.176 
436.26 
459.583 
422.273 
485.75 
447.711 
452.669 
459.469 
472.212 
487.691 
466.053 
467.405 
487.454 
506.793 
451.521 
480.799 
459.49 
427.402 
481.878 
399.371 
451.697 
480.269 
461.016 
456.503 
444.015 
426.996 
473.634 
452.595 
426.711 
458.959 
442.337 
483.644 
498.145 
493.123 
462.695 
432.821 
501.025 
462.684 
480.12 
422.972 
487.243 
426.466 
482.832 
426.796 
479.495 
464.776 
497.065 
481.403 
470.312 
436.085 
402.045 
514.68 
447.158 
446.552 
424.733 
438.907 
451.767 
417.086 
505.69 
506.042 
446.329 
491.76 
459.639 
430.224 
434.454 
457.984 
462.338 
430.139 
447.516 
519.87 
487.291 
495.327 
477.411 
421.608 
478.243 
439.197 
420.25 
500.995 
489.282 
466.315 
498.105 
467.756 
442.369 
483.421 
510.953 
487.994 
498.971 
449.411 
451.277 
439.972 
495.731 
463.18 
470.376 
518.821 
476.763 
538.259 
534.267 
537.912 
454.467 
519.338 
490.161 
465.932 
473.264 
500.988 
420.18 
477.965 
478.232 
482.967 
412.473 
436.968 
448.776 
516.021 
440.112 
416.449 
469.218 
461.47 
515.654 
572.721 
509.766 
477.792 
469.281 
487.376 
543.687 
484.772 
501.195 
425.219 
474.023 
470.211 
470.386 
422.598 
526.218 
543.336 
478.192 
460.204 
411.901 
432.262 
487.003 
503.093 
486.131 
471.222 
487.69 
478.854 
457.802 
481.666 
533.44 
475.999 
491.279 
477.996 
470.264 
556.966 
465.347 
531.222 
541.737 
523.991 
452.764 
463.291 
543.404 
466.436 
512.797 
451.473 
422.05 
503.855 
427.716 
526.017 
490.857 
512.198 
508.671 
473.423 
585.528 
511.044 
576.62 
517.49 
568.558 
487.852 
583.217 
556.897 
537.57 
507.775 
493.447 
495.763 
445.772 
452.609 
407.279 
483.666 
485.152 
431.9 
511.463 
372.465 
486.882 
465.513 
475.179 
415.216 
444.795 
457.584 
439.817 
520.841 
488.229 
455.635 
561.198 
443.18 
527.702 
504.628 
546.865 
469.279 
451.875 
565.548 
511.774 
490.302 
529.172 
567.388 
504.012 
591.412 
473.614 
448.33 
531.396 
440.807 
437.666 
464.267 
450.142 
444.145 
434.744 
486.425 
518.603 
490.221 
494.839 
488.525 
503.348 
515.062 
496.05 
514.525 
507.561 
532.849 
547.574 
496.115 
519.441 
582.915 
490.963 
497.914 
571.613 
532.41 
461.219 
496.682 
505.815 
494.054 
703.283 
472.445 
492.275 
470.882 
573.221 
498.578 
521.979 
533.679 
497.332 
484.974 
547.726 
522.912 
602.464 
560.754 
544.911 
534.294 
612.015 
529.193 
490.226 
506.867 
462.113 
479.776 
561.81 
511.094 
497.557 
543.593 
505.964 
496.633 
482.153 
547.17 
504.797 
440.228 
457.954 
461.463 
507.925 
543.889 
544.167 
522.209 
521.25 
523.597 
534.085 
560.813 
522.781 
