ITEM: TIMESTEP
8600000
ITEM: NUMBER OF CELLS
1000
ITEM: BOX BOUNDS ss rr pp
0 0.004
0 0.01
-0.5 0.5
ITEM: CELLS f_temp1[*] 
299.326 
274.164 
289.962 
259.294 
308.71 
277.761 
284.762 
319.191 
279.874 
293.808 
258.549 
285.185 
301.511 
291.392 
313.301 
277.896 
280.719 
292.64 
314.807 
319.522 
318.913 
314.108 
310.606 
283.983 
328.99 
298.935 
318.708 
304.003 
339.184 
293.562 
348.457 
292.379 
303.955 
307.911 
293.8 
344.519 
323.63 
318.294 
340.928 
310.813 
334.482 
279.059 
321.965 
306.381 
331.161 
286.856 
276.738 
308.557 
302.534 
303.034 
320.355 
289.596 
300.31 
320.817 
325.278 
350.761 
340.453 
312.882 
377.915 
334.766 
352.068 
360.128 
339.018 
312.394 
303.816 
309.146 
320.998 
294.58 
349.548 
314.713 
317.936 
336.009 
347.917 
342.209 
321.964 
289.732 
341.976 
334.868 
326.598 
351.835 
322.604 
358.835 
313.161 
311.559 
337.737 
342.578 
323.647 
323.951 
351.664 
349.065 
339.699 
331.766 
332.172 
339.674 
349.169 
336.514 
340.066 
352.946 
295.983 
333.207 
307.124 
311.636 
309.825 
313.414 
330.354 
288.198 
341.554 
316.389 
318.039 
326.75 
352.821 
351.645 
345.928 
347.216 
355.519 
319.043 
354.27 
328.804 
362.215 
375.006 
307.319 
318.982 
390.871 
340.174 
314.236 
344.337 
292.105 
362.061 
338.57 
325.802 
306.684 
281.068 
336.223 
331.351 
325.591 
331.536 
348.534 
319.1 
373.313 
336.59 
306.248 
359.93 
332.37 
329.575 
330.452 
328.263 
343.396 
304.829 
395.963 
339.829 
336.671 
359.917 
353.957 
353.344 
330.254 
329.704 
345.924 
347.447 
340.211 
278.501 
330.458 
322.006 
305.588 
362.496 
350.266 
361.141 
318.951 
357.112 
325.547 
362.465 
326.816 
358.322 
329.769 
313.419 
347.623 
340.624 
312.105 
362.634 
340.812 
330.916 
354.411 
359.246 
290.776 
312.792 
336.81 
334.038 
385.265 
362.647 
349.222 
365.842 
391.517 
365.823 
371.202 
430.449 
366.799 
372.592 
380.287 
359.846 
353.263 
330.139 
362.953 
346.378 
355.2 
397.293 
362.317 
333.398 
351.419 
345.242 
277.205 
337.341 
345.076 
351.309 
341.762 
357.967 
399.736 
381.033 
311.225 
340.73 
364.469 
379.917 
360.999 
326.044 
315.79 
362.311 
340.568 
312.443 
345.718 
355.858 
364.155 
347.445 
339.924 
324.893 
373.59 
354.74 
375.088 
376.969 
355.873 
358.514 
338.619 
355.519 
375.585 
382.606 
350.844 
337.34 
389.007 
351.812 
369.789 
317.818 
349.352 
399.64 
375.431 
377.916 
377.803 
360.399 
385.963 
387.122 
339.93 
353.245 
355.912 
354.651 
359.252 
339.468 
409.681 
362.861 
349.765 
310.998 
345.668 
333.147 
370.779 
361.857 
332.741 
367.94 
356.281 
344.527 
357.154 
378.904 
371.442 
338.524 
376.818 
417.266 
344.995 
352.493 
357.286 
386.23 
381.414 
402.89 
405.854 
368.846 
402.561 
388.086 
347.073 
416.404 
362.805 
376.06 
340.605 
360.759 
324.353 
350.886 
354.722 
422.817 
307.765 
395.237 
337.225 
338.779 
340.099 
396.032 
452.68 
364.729 
390.925 
319.54 
352.366 
353.843 
391.563 
318.871 
373.111 
345.71 
364.659 
324.055 
333.392 
356.303 
350.054 
326.688 
349.829 
358.816 
365.577 
366.815 
364.196 
362.849 
383.929 
391.473 
333.796 
390.064 
370.775 
344.704 
321.924 
360.501 
352.031 
351.104 
360.369 
382.184 
409.73 
421.393 
376.756 
362.938 
385.284 
397.388 
441.171 
393.209 
411.927 
413.313 
383.195 
398.889 
349.79 
375.613 
364.05 
410.621 
409.179 
356.093 
397.748 
407.84 
443.199 
370.375 
404.953 
365.874 
382.139 
391.097 
352.468 
386.622 
361.588 
363.479 
383.074 
420.125 
429.269 
402.092 
371.443 
386.101 
374.46 
380.338 
367.842 
356.404 
418.969 
328.44 
381.199 
376.08 
399.928 
353.432 
345.054 
396.093 
355.364 
357.418 
349.727 
358.816 
372.475 
373.939 
425.198 
367.904 
397.142 
381.728 
432.729 
369.646 
357.813 
354.329 
348.569 
378.537 
331.599 
381.12 
354.546 
388.66 
320.237 
373.615 
394.792 
396.39 
355.856 
393.291 
373.348 
377.99 
359.144 
393.475 
356.235 
390.236 
323.299 
394.946 
402.179 
391.631 
385.14 
397.507 
397 
411.854 
380.708 
396.055 
406.661 
405.093 
375.742 
414.828 
353.612 
387.093 
402.171 
414.448 
391.246 
373.691 
379.129 
430.437 
409.518 
359.048 
379.199 
378.253 
411.422 
396.545 
374.801 
387.537 
390.145 
372.745 
380.745 
410.73 
396.617 
426.656 
404.588 
408.88 
390.929 
403.148 
379.356 
389.747 
426.393 
349.279 
418.566 
369.092 
389.667 
388.52 
371.742 
380.379 
379.882 
389.639 
398.079 
396.986 
379.137 
349.949 
365.014 
391.799 
399.207 
387.833 
411.002 
396.735 
417.524 
428.391 
390.137 
372.94 
381.293 
381.811 
408.893 
371.476 
445.744 
352.908 
397.895 
393.272 
378.035 
360.709 
344.416 
403.514 
372.81 
351.309 
408.994 
371.682 
338.157 
379.314 
406.981 
413.953 
392.714 
382.465 
413.881 
413.308 
420.088 
407.974 
447.933 
454.641 
397.146 
437.478 
413.834 
403.354 
466.167 
393.106 
484.54 
434.983 
417.198 
410.676 
458.186 
418.409 
428.677 
431.068 
382.629 
384.879 
443.325 
418.819 
502.537 
392.064 
419.385 
383.05 
404.966 
400.337 
445.431 
471.819 
456.14 
470.176 
406.658 
484.345 
450.578 
425.679 
426.775 
362.906 
437.276 
424.431 
418.916 
410.082 
454.476 
389.042 
397.766 
429.781 
419.313 
407.338 
444.675 
427.869 
428.214 
423.994 
388.622 
461.311 
443.496 
440.218 
462.575 
445.29 
360.065 
403.067 
438.73 
518.175 
454.642 
443.758 
451.563 
376.058 
435.031 
428.019 
469.371 
395.163 
403.516 
458.44 
427.447 
455.368 
423.111 
437.715 
439.889 
451.205 
400.326 
432.263 
448.797 
456.009 
432.509 
408.89 
474.46 
413.291 
448.282 
470.619 
451.293 
435.3 
448.569 
387.492 
385.581 
406.059 
440.421 
461.799 
429.514 
449.808 
444.506 
424.438 
427.3 
435.553 
457.721 
449.789 
393.753 
393.746 
407.324 
439.654 
383.277 
421.886 
403.683 
436.706 
391.226 
417.568 
371.113 
367.959 
385.929 
426.086 
389.319 
432.564 
424.571 
406.654 
415.789 
438.884 
437.394 
416.502 
511.409 
465.006 
476.232 
377.032 
434.842 
484.855 
383.194 
433.648 
407.469 
403.687 
508.962 
432.08 
414.212 
403.439 
383.027 
432.364 
451.457 
500.384 
400.252 
376.917 
392.255 
398.4 
439.942 
439.836 
414.783 
462.759 
452.529 
426.338 
409.1 
470.86 
445.95 
405.259 
473.85 
480.943 
464.751 
441.832 
429.669 
462.802 
454.65 
475.035 
456.946 
450.023 
364.573 
403.701 
414.78 
441.109 
506.342 
404.293 
454.631 
432.318 
486.346 
473.581 
445.12 
493.959 
413.92 
421.791 
414.766 
392.737 
421.883 
439.83 
465.699 
459.855 
462.181 
443.577 
450.662 
470.917 
434.561 
471.493 
458.977 
419.843 
463.137 
438.57 
448.805 
473.734 
437.128 
458.567 
432.745 
457.2 
472.932 
448.374 
441.126 
497.226 
437.221 
499.962 
471.982 
456.328 
442.867 
462.55 
472.899 
439.885 
433.366 
419.848 
431.56 
449.921 
448.918 
413.912 
442.769 
449.754 
477.567 
411.3 
428.41 
438.408 
442.01 
415.132 
446.427 
397.849 
382.034 
416.468 
443.021 
453.786 
441.287 
390.59 
441.862 
442.189 
468.711 
444.241 
449.598 
419.88 
475.993 
424.151 
419.796 
420.494 
353.605 
445.917 
454.912 
468.796 
434.142 
507.365 
439.048 
490.803 
466.777 
491.466 
445.677 
409.478 
487.112 
496.592 
441.019 
516.755 
462.337 
531.513 
373.644 
532.651 
440.238 
395.209 
472.393 
523.391 
455.875 
513.273 
425.511 
441.077 
461.4 
518.527 
429.08 
420.308 
480.652 
455.13 
478.695 
529.591 
476.253 
467.888 
487.166 
509.016 
520.159 
451.654 
497.955 
483.357 
460.251 
474.849 
482.914 
438.907 
445.883 
559.151 
518.886 
441.794 
479.994 
466.786 
487.337 
525.963 
460.78 
461.392 
432.735 
448.729 
470.631 
455.63 
468.609 
405.153 
465.571 
469.326 
463.884 
439.576 
497.474 
480.276 
472.417 
444.443 
472.713 
528.771 
477.352 
424.171 
409.919 
552.151 
450.153 
555.161 
471.006 
534.236 
434.362 
494.262 
447.293 
425.067 
441.842 
528.635 
524.686 
514.696 
494.732 
514.825 
557.093 
442.673 
395.616 
469.702 
487.066 
446.895 
422.056 
455.401 
450.009 
444.182 
530.077 
434.205 
508.429 
503.079 
492.247 
459.654 
420.433 
437.686 
455.019 
411.007 
504.472 
462.079 
491.142 
496.827 
515.264 
425.211 
449.133 
469.402 
499.473 
464.176 
499.816 
468.477 
474.476 
457.78 
505.599 
469.861 
401.283 
451.303 
487.093 
468.963 
596.578 
429.463 
507.397 
488.406 
490.84 
514.258 
465.674 
451.233 
487.564 
479.855 
504.431 
452.67 
510.606 
463.537 
403.504 
409.078 
520.741 
415.652 
497.381 
525.923 
522.686 
536.748 
495.662 
428.817 
502.635 
495.679 
491.071 
456.935 
504.27 
468.411 
435.885 
482.863 
470.835 
466.309 
473.405 
429.697 
458.156 
486.373 
439.775 
456.32 
442.563 
491.698 
460.996 
447.849 
440.024 
407.239 
488.316 
518.842 
471.137 
466.629 
491.084 
536.638 
472.802 
436.621 
474.192 
510.656 
498.074 
484.619 
547.693 
513.682 
549.5 
482.826 
449.761 
553.892 
514.544 
466.383 
490.874 
531.981 
470.526 
532.851 
437.826 
483.66 
457.796 
466.706 
474.201 
464.296 
540.381 
524.232 
472.121 
487.852 
507.778 
474.973 
455.556 
498.216 
502.24 
579.924 
456.798 
448.562 
450.179 
473.624 
457.583 
491.921 
551.959 
545.293 
543.331 
518.095 
489.01 
473.461 
461.25 
422.021 
464.76 
514.237 
467.288 
427.071 
447.139 
538.802 
465.741 
453.197 
440.561 
508.329 
