ITEM: TIMESTEP
6500000
ITEM: NUMBER OF CELLS
1000
ITEM: BOX BOUNDS ss rr pp
0 0.004
0 0.01
-0.5 0.5
ITEM: CELLS f_temp1[*] 
299.768 
292.321 
307.459 
279.589 
309.204 
306.042 
291.838 
336.966 
306.669 
303.254 
284.475 
313.44 
319.801 
262.879 
291.512 
291.435 
306.134 
287.003 
322.852 
311.245 
289.385 
296.756 
322.318 
309.766 
315.815 
317.144 
276.145 
282.494 
271.758 
314.352 
294.011 
275.055 
298.4 
297.209 
294.109 
330.325 
307.569 
290.953 
299.264 
304.882 
267.007 
262.093 
287.19 
280.88 
275.31 
298.631 
317.254 
287.928 
305.899 
293.601 
306.309 
298.368 
324.631 
321.239 
293.413 
307.262 
270.664 
297.121 
325.336 
314.36 
311.132 
266.608 
309.666 
295.191 
342.6 
305.868 
281.347 
320.939 
284.809 
326.263 
311.765 
313.75 
306.689 
272.682 
297.591 
331.187 
264.54 
283.137 
302.946 
297.137 
304.135 
309.902 
295.279 
315.779 
261.485 
280.419 
290.263 
271.174 
293.711 
318.328 
336.897 
304.615 
301.2 
290.862 
326.425 
341.791 
316.448 
285.426 
316.495 
325.156 
334.645 
310.007 
309.541 
299.173 
324.4 
329.411 
279.287 
305.105 
314.214 
307.922 
339.424 
354.553 
334.574 
289.9 
330.096 
307.559 
358.914 
308.064 
338.993 
346.207 
323.536 
329.94 
346.779 
361.236 
293.574 
313.528 
344.985 
317.184 
334.844 
305.843 
319.813 
331.036 
339.765 
323.696 
312.252 
322.967 
364.758 
337.35 
355.312 
348.261 
317.555 
343.353 
313.925 
346.447 
338.903 
374.32 
323.225 
331.514 
362.504 
334.764 
323.451 
382.79 
354.933 
376.813 
333.143 
347.364 
351.325 
320.65 
320.699 
366.14 
364.861 
396.703 
346.168 
315.357 
331.407 
312.119 
317.256 
306.895 
326.565 
339.28 
309.644 
347.978 
331.021 
333.198 
313.248 
332.115 
368.453 
348.552 
327.179 
329.718 
334.585 
337.504 
323.851 
346.08 
321.869 
388.933 
375.794 
316.724 
352.002 
352.223 
337.195 
340.557 
352.754 
371.249 
332.401 
339.728 
314.931 
323.874 
351.185 
334.945 
360.198 
312.957 
356.53 
304.72 
400.799 
316.749 
358.489 
326.997 
367.946 
366.221 
330.837 
298.725 
344.222 
331.045 
328.501 
311.469 
366.408 
308.598 
373.717 
359.81 
364.648 
366.95 
355.377 
386.966 
337.84 
340.35 
330.523 
310.702 
345.862 
370.626 
352.129 
336.349 
344.123 
333.325 
332.708 
344.436 
360.075 
332.908 
378.383 
351.633 
343.168 
397.459 
360.559 
384.105 
357.985 
322.329 
360.928 
369.357 
377.758 
356.192 
335.189 
361.073 
360.759 
377.246 
383.375 
405.426 
392.1 
375.108 
322.628 
388.446 
384.23 
341.951 
373.946 
385.284 
305.175 
309.663 
348.409 
378.861 
363.768 
351.986 
357.676 
341.875 
405.243 
370.562 
330.429 
365.647 
332.701 
362.18 
374.424 
348.954 
382.843 
397.412 
353.575 
359.342 
433.168 
410.133 
353.595 
372.453 
422.026 
378.104 
362.654 
415.273 
391.936 
359.236 
414.982 
373.083 
414.179 
406.235 
374.479 
359.167 
382.768 
368.306 
420.62 
397.915 
419.81 
336.862 
371.537 
388.591 
452.322 
384.287 
388.523 
385.919 
386.208 
402.326 
361.699 
371.732 
380.394 
353.519 
353.349 
342.276 
383.967 
398.696 
388.638 
364.285 
411.66 
373.229 
406.985 
416.33 
391.186 
402.231 
411.132 
340.297 
362.051 
390.367 
386.346 
357.888 
427.044 
379.734 
372.258 
359.577 
370.97 
385.99 
341.064 
367.281 
375.353 
381.473 
361.022 
361.42 
335.53 
370.335 
396.309 
334.528 
307.883 
388.312 
363.814 
370.145 
359.182 
373.42 
420.465 
384.02 
360.389 
366.815 
330.458 
383.573 
384.647 
383.13 
335.464 
397.163 
405.879 
394.275 
371.044 
420.925 
398.695 
412.559 
442.992 
364.83 
423.583 
380.541 
385.457 
363.378 
373.391 
384.821 
322.344 
371.142 
422.511 
398.295 
439.94 
409.586 
392.568 
402.328 
358.044 
418.283 
404.132 
362.192 
429.362 
396.347 
350.154 
397.791 
386.76 
377.832 
438.445 
423.407 
413.847 
449.917 
419.209 
408.633 
399.339 
396.875 
380.471 
396.818 
383.35 
384.569 
388.99 
366.661 
346.565 
395.134 
389.105 
408.107 
333.602 
374.713 
403.559 
380.565 
391.091 
417.461 
447.809 
408.563 
405.267 
407.716 
363.607 
407.004 
424.344 
371.13 
381.454 
398.142 
471.544 
427.064 
428.409 
380.332 
415.185 
414.254 
395.722 
402.393 
382.623 
389.25 
402.253 
428.981 
393.952 
408.514 
411.424 
381.763 
378.009 
365.292 
413.315 
417.323 
441.208 
395.644 
407.761 
351.308 
403.554 
401.703 
428.533 
404.235 
394.295 
411.374 
385.65 
459.862 
436.241 
490.698 
432.96 
435.934 
484.299 
446.23 
439.281 
434.859 
429.034 
397.359 
368.256 
406.343 
413.838 
390.134 
416.096 
449.34 
412.577 
388.999 
377.397 
395.764 
361.763 
411.441 
441.36 
490.463 
401.369 
389.832 
372.138 
387.92 
445.126 
411.113 
404.281 
400.837 
358.03 
406.798 
363.051 
422.899 
410.115 
377.156 
404.573 
385.82 
422.356 
382.735 
402.168 
422.14 
449.655 
439.115 
375.583 
385.422 
453.046 
404.086 
400.109 
423.999 
372.474 
393.797 
421.849 
392.235 
465.816 
419.575 
414.995 
473.822 
457.231 
439.499 
429.266 
427.27 
415.578 
448.267 
419.859 
448 
433.401 
450.692 
446.938 
399.047 
428.768 
395.812 
403.079 
460.688 
423.165 
426.616 
468.789 
428.297 
403.386 
341.902 
386.228 
409.254 
380.681 
424.278 
414.017 
427.503 
426 
388.29 
383.153 
460.957 
395.316 
398.767 
431.917 
466.111 
451.116 
364.143 
446.97 
460.93 
435.366 
423.462 
455.683 
433.672 
461.795 
445.35 
391.101 
453.451 
429.002 
433.29 
403.051 
461.895 
433.899 
455.905 
445.097 
459.399 
428.266 
448.685 
493.751 
425.946 
439.955 
395.132 
434.253 
443.411 
443.399 
433.607 
432.573 
399.125 
424.535 
431.331 
413.99 
382.758 
414.227 
409.916 
427.155 
466.24 
426.703 
426.715 
421.987 
400.264 
400.747 
449.882 
468.822 
452.555 
425.48 
442.46 
404.404 
392.38 
471.964 
496.966 
458.219 
433.772 
438.541 
441.998 
431.543 
449.58 
441.245 
396.291 
468.677 
470.778 
451.612 
453.336 
459.737 
453.542 
443.982 
458.263 
456.342 
482.959 
483.787 
408.03 
471.145 
454.872 
437.501 
409.925 
444.668 
410.098 
481.348 
522.582 
468.707 
452.305 
452.861 
466.548 
445.942 
423.551 
396.402 
455.36 
475.811 
423.089 
495.431 
411.745 
418.928 
411.227 
438.9 
439.794 
435.835 
402.094 
467.455 
448.064 
437.855 
473.689 
526.804 
438.075 
472.704 
454.651 
436.405 
529.237 
412.591 
442.438 
459.047 
404.426 
446.163 
419.909 
476.984 
479.097 
442.667 
492.326 
457.068 
428.761 
416.446 
494.469 
426.952 
395.173 
412.79 
492.044 
427.331 
428.127 
412.262 
450.657 
408.246 
464.905 
418.641 
473.752 
471.399 
430.551 
408.507 
441.864 
440.619 
511.111 
481.658 
443.244 
491.209 
434.779 
470.489 
449.525 
544.394 
488.599 
388.966 
466.814 
494.352 
438.362 
413.018 
450.146 
431.834 
492.13 
491.23 
440.935 
509.161 
457.186 
440.456 
429.896 
448.891 
483.672 
478.468 
484.869 
492.299 
535.044 
476.928 
491.848 
493.51 
498.368 
490.449 
499.158 
463.375 
474.721 
482.079 
468.201 
497.228 
497.107 
424.77 
485.253 
454.842 
484.482 
508.623 
416.38 
468.597 
445.302 
460.734 
432.335 
498.132 
445.526 
386.62 
470.158 
427.158 
477.489 
435.563 
466.08 
432.246 
448.85 
423.422 
469.202 
456.459 
416.264 
448.191 
448.296 
489.044 
452.066 
495.904 
389.666 
464.793 
438.517 
450.092 
425.242 
482.65 
494.348 
470.82 
405.022 
528.628 
437.085 
442 
429.179 
515.52 
395.645 
444.805 
461.034 
416.32 
458.198 
411.453 
460.25 
466.756 
454.739 
411.303 
475.841 
476.069 
459.336 
449.122 
504.659 
494.562 
368.21 
439.054 
466.409 
463.986 
412.511 
487.464 
500.631 
459.863 
488.096 
413.008 
449.649 
439.683 
508.729 
487.032 
511.755 
460.347 
441.88 
455.26 
500.502 
536.554 
491.888 
493.424 
498.687 
496.457 
494.324 
461.204 
492.172 
468.956 
443.943 
430.164 
451.276 
463.916 
466.541 
518.003 
482.914 
477.673 
486.601 
416.34 
454.699 
481.279 
475.374 
492.665 
445.724 
452.198 
462.014 
450.379 
434.857 
417.141 
520.471 
452.818 
454.788 
434.182 
454.813 
475.559 
478.469 
501.324 
455.097 
480.262 
420.144 
434.889 
478.534 
472.263 
497.618 
493.53 
445.893 
474.252 
469.914 
420.959 
504.187 
443.882 
495.338 
460.323 
435.382 
487.857 
423.902 
466.856 
409.362 
510.455 
484.506 
473.777 
453.044 
477.029 
500.869 
469.773 
443.871 
548.492 
480.676 
455.547 
484.974 
495.324 
463.856 
448.999 
458.451 
455.427 
496.049 
505.476 
455.763 
502.79 
519.99 
504.748 
526.339 
497.896 
547.584 
501.517 
460.178 
508.71 
476.721 
485.788 
501.499 
466.522 
472.003 
470.374 
518.724 
469.469 
503.622 
480.527 
505.564 
515.864 
478.086 
526.239 
471.928 
482.005 
470.656 
465.787 
481.863 
498.598 
480.267 
504.027 
471.595 
466.395 
518.611 
460.573 
447.239 
473.804 
453.824 
443.807 
429.558 
532.24 
443.562 
439.307 
406.696 
544.481 
465.57 
507.051 
485.815 
479.034 
503.666 
493.342 
518.722 
418.537 
469.889 
439.645 
446.037 
525.93 
456.809 
445.995 
520.355 
489.75 
511.558 
515.493 
492.667 
512.607 
469.429 
572.634 
455.382 
476.167 
493.528 
512.383 
453.288 
454.521 
509.036 
492.905 
462.817 
448.41 
507.803 
528.231 
518.521 
536.393 
531.1 
542.051 
565.088 
485.401 
485.319 
506.411 
455.998 
490.964 
537.019 
460.752 
490.423 
522.713 
501.313 
529.801 
508.844 
505.103 
534.663 
508.645 
452.471 
