ITEM: TIMESTEP
900000
ITEM: NUMBER OF CELLS
1000
ITEM: BOX BOUNDS ss rr pp
0 0.004
0 0.01
-0.5 0.5
ITEM: CELLS f_temp1[*] 
310.929 
302.031 
316.572 
293.925 
284.177 
284.985 
298.495 
291.904 
310.051 
276.354 
330.715 
308.397 
276.898 
305.778 
318.16 
327.586 
282.999 
325.526 
327.268 
297.605 
313.134 
302.779 
307.826 
315.171 
297.535 
314.331 
287.814 
323.646 
301.806 
320.791 
317.719 
329.367 
322.064 
316.094 
346.776 
314.069 
303.277 
299.343 
325.31 
327.145 
293.062 
315.474 
330.062 
326.314 
311.122 
335.285 
332.179 
328.297 
309.181 
347.048 
343.284 
297.74 
306.35 
319.047 
314.194 
343.283 
258.763 
296.183 
308.319 
278.119 
269.385 
301.327 
284.885 
320.86 
299.025 
294.039 
286.57 
302.692 
296.328 
324.739 
281.806 
313.421 
311.625 
317.795 
335.622 
324.03 
309.655 
327.793 
316.818 
303.345 
304.895 
324.169 
351.096 
335.769 
319.395 
284.888 
315.324 
286.512 
305.869 
322.738 
347.319 
323.478 
335.053 
301.928 
336.662 
318.679 
304.251 
310.103 
312.831 
283.713 
297.395 
307.289 
330.72 
322.015 
356.581 
325.027 
302.592 
333.07 
349.422 
318.731 
317.058 
342.731 
307.118 
314.087 
306.064 
301.224 
329.327 
325.847 
351.058 
340.072 
320.242 
312.351 
337.595 
359.68 
308.951 
338.599 
350.379 
374.368 
365.623 
318.434 
336.226 
334.528 
311.067 
326.78 
307.374 
323.553 
321.228 
314.699 
341.498 
300.753 
296.347 
321.016 
322.48 
326.498 
271.172 
310.207 
332.543 
325.771 
305.375 
386.534 
297.041 
338.141 
281.79 
336.894 
338.908 
307.495 
327.901 
333.985 
287.154 
344.934 
338.428 
302.357 
318.915 
321.423 
296.184 
319.356 
305.045 
319.368 
292.798 
312.404 
341.112 
306.675 
332.061 
315.044 
294.268 
345.431 
317.348 
319.477 
354.517 
301.902 
282.732 
342.355 
305.747 
339.972 
368.694 
361.294 
357.978 
329.088 
345.88 
384.77 
358.195 
329.343 
348.822 
313.21 
382.311 
340.692 
350.676 
369.616 
314.173 
392.133 
345.101 
350.213 
371.932 
349.402 
380.736 
326.737 
365.567 
352.424 
376.851 
391.517 
381.138 
354.161 
351.913 
371.984 
351.664 
322.895 
407.654 
332.352 
346.654 
358.05 
351.769 
349.357 
342.787 
379.306 
364.496 
393.02 
327.657 
363.76 
382.701 
354.275 
365.045 
377.27 
346.657 
344.897 
356.761 
384.093 
377.676 
354.892 
379.162 
321.633 
315.868 
389.651 
349.274 
346.486 
392.354 
391.181 
392.67 
365.48 
389.433 
379.75 
354.627 
332.377 
332.418 
336.532 
333.843 
366.006 
329.372 
372.586 
411.016 
370.79 
338.506 
366.798 
349.211 
335.675 
371.936 
329.601 
372.05 
340.369 
330.124 
371.33 
353.453 
343.115 
412.61 
394.75 
359.941 
339.477 
349.219 
337.528 
392.598 
430.669 
451.549 
374.534 
379.589 
416.908 
381.931 
356.091 
305.412 
389.219 
359.612 
386.172 
376.105 
377.999 
363.723 
394.595 
399.129 
351.495 
316.494 
359.203 
406.716 
363.708 
407.667 
380.685 
386.716 
391.577 
343.426 
365.431 
405.941 
370.816 
370.692 
369.228 
365.807 
409.781 
350.921 
352.647 
404.953 
361.819 
369.832 
390.342 
332.525 
382.858 
419.817 
367.198 
406.922 
381.576 
383.253 
414.198 
352.716 
393.006 
424.856 
385.482 
364.177 
395.769 
373.99 
364.709 
354.33 
385.003 
404.496 
385.99 
412.768 
358.524 
403.283 
410.256 
371.711 
378.55 
390.975 
323.972 
334.487 
392.223 
384.15 
396.178 
370.85 
399.959 
398.821 
438.968 
348.244 
393.119 
386.376 
392.128 
381.53 
380.669 
383.354 
376.774 
413.318 
421.999 
408.174 
363.475 
354.381 
391.7 
420.774 
375.748 
425.072 
367.769 
412.082 
363.678 
421.677 
410.844 
418.229 
348.386 
383.762 
452.993 
365.305 
399.376 
404.65 
430.927 
409.856 
383.706 
366.492 
366.995 
376.387 
405.526 
370.745 
401.018 
376.71 
366.499 
380.343 
335.626 
384.984 
359.754 
435.078 
358.494 
409.099 
359.828 
403.865 
398.798 
393.532 
361.26 
417.344 
420.175 
391 
399.861 
377.258 
375.96 
404.447 
358.31 
417.587 
343.941 
390.911 
377.183 
372.137 
411.73 
393.325 
370.424 
411.022 
361.1 
362.63 
379.245 
400.875 
352.174 
352.994 
368.712 
396.697 
388.086 
423.676 
384.626 
384.02 
423.437 
371.161 
410.785 
351.748 
394.07 
358.895 
356.805 
414.297 
414.687 
358.574 
414.227 
346.645 
397.605 
362.002 
385.003 
421.656 
386.092 
415.138 
403.69 
351.902 
407.17 
389.466 
380.88 
423.407 
403.063 
399.935 
407.543 
421.672 
416.434 
410.052 
386.982 
389.097 
421.333 
383.112 
402.376 
419.017 
388.409 
420.14 
358.502 
388.317 
401.719 
353.728 
418.688 
378.531 
368.488 
401.956 
364.985 
396.394 
417.166 
407.773 
397.764 
427.905 
389.273 
357.284 
339.059 
383.697 
395.217 
427.328 
361.324 
385.121 
398.12 
378.569 
388.448 
353.523 
364.909 
442.34 
420.093 
406.206 
386.209 
379.821 
359.976 
471.672 
406.026 
441.213 
436.719 
512.297 
422.564 
396.258 
415.512 
443.463 
447.054 
359.068 
408.323 
376.591 
431.66 
442.846 
352.198 
379.385 
411.359 
399.229 
355.056 
386.925 
374.209 
383.768 
358.927 
383.691 
371.312 
384.666 
393.312 
368.437 
372.085 
364.735 
426.089 
446.423 
422.592 
480.48 
408.892 
394.98 
414.634 
385.245 
372.24 
420.05 
423.947 
386.556 
433.951 
390.771 
367.927 
430.517 
390.31 
413.913 
420.401 
414.759 
382.013 
396.221 
414.147 
430.783 
374.099 
379.405 
440.121 
441.118 
444.872 
393.518 
399.838 
440.801 
399.952 
388.043 
389.602 
440.871 
383.656 
445.902 
447.727 
390.489 
406.611 
406.422 
396.478 
393.868 
429.393 
429.505 
413.514 
459.245 
431.185 
440.319 
431.532 
502.631 
459.973 
393.353 
413.362 
399.261 
398.86 
404.462 
477.356 
412.436 
404.401 
422.878 
449.248 
413.611 
415.23 
409.719 
415.013 
419.474 
412.721 
410.966 
450.576 
412.2 
422.241 
377.107 
458.792 
390.04 
414.851 
379.569 
401.012 
431.312 
438.111 
399.45 
464.6 
438.232 
474.822 
487.279 
424.262 
467.018 
505.938 
457.545 
370.973 
431.534 
434.161 
466.161 
444.206 
433.083 
423.807 
418.624 
399.451 
457.39 
432.323 
492.906 
408.428 
423.734 
457.027 
433.162 
451.865 
414.654 
448.487 
411.428 
401.774 
466.584 
444.33 
436.698 
493.685 
403.636 
438.167 
440.431 
483.783 
483.263 
447.064 
434.642 
437.446 
470.375 
496.953 
389.324 
406.285 
408.813 
456.509 
421.156 
460.395 
415.813 
434.851 
404.97 
409.75 
406.116 
450.641 
434.983 
439.753 
402.192 
475.437 
478.836 
450.781 
428.582 
474.015 
475.802 
449.939 
382.72 
397.588 
442.222 
425.108 
470.566 
520.085 
484.84 
460.425 
454.075 
489.368 
510.36 
471.977 
547.691 
436.359 
429.463 
410.113 
467.964 
406.986 
526.002 
459.867 
502.673 
469.754 
507.629 
456.172 
431.243 
437.516 
438.676 
468.584 
507.48 
497.824 
465.747 
425.982 
540.836 
446.411 
474.577 
487.803 
466.191 
489.812 
403.642 
422.065 
470.371 
476.248 
446.466 
439.928 
472.056 
459.426 
456.84 
487.189 
454.359 
497.911 
448.47 
452.495 
484.887 
484.959 
525.212 
537.761 
466.848 
459.675 
468.558 
490.64 
420.773 
450.185 
446.333 
436.803 
431.6 
442.646 
498.634 
542.199 
510.312 
453.811 
531.904 
483.208 
478.543 
455.32 
430.281 
490.969 
467.877 
418.633 
427.826 
403.806 
508.104 
465.928 
471.381 
444.421 
403.384 
433.115 
440.223 
440.848 
482.115 
460.197 
475.474 
463.508 
427.301 
450.256 
433.714 
438.288 
509.195 
456.782 
447.697 
488.631 
435.599 
480.206 
472.346 
501.562 
507.215 
438.515 
500.105 
507.808 
452.332 
511.832 
455.364 
501.108 
435.798 
487.933 
459.474 
449.397 
503.314 
508.617 
527.846 
556.6 
467.083 
458.717 
421.458 
489.012 
453.107 
514.24 
419.624 
508.649 
466.169 
478.038 
389.235 
412.054 
473.48 
456.529 
457.616 
502.074 
458.381 
433.186 
466.928 
432.19 
440.644 
449.266 
502.958 
469.578 
415.525 
446.316 
457.537 
534.816 
422.327 
521.515 
511.063 
430.032 
455.87 
416.891 
437.822 
494.273 
467.529 
390.73 
534.836 
566.284 
466.658 
546.851 
519.303 
465.493 
538.053 
492.928 
482.035 
425.045 
430.926 
439.563 
425.49 
428.232 
533.775 
435.675 
494.24 
519.581 
490.965 
494.571 
518.828 
440.695 
447.79 
501.168 
483.029 
449.749 
482.17 
507.372 
397.811 
439.296 
480.086 
437.758 
410.403 
422.426 
440.966 
481.004 
467.391 
468.376 
426.409 
454.897 
519.813 
494.358 
466.969 
457.773 
507.208 
472.498 
482.035 
456.726 
452.255 
477.029 
500.742 
476.743 
458.736 
515.045 
553.725 
472.898 
444.176 
508.836 
561.317 
449.339 
482.93 
459.33 
494.228 
482.397 
464.969 
544.057 
466.055 
470.19 
480.324 
459.322 
399.627 
466.019 
422.941 
444.74 
441.583 
453.66 
523.962 
446.072 
482.007 
483.643 
520.758 
513.992 
420.93 
473.303 
455.373 
524.39 
465.641 
521.845 
469.349 
456.965 
435.431 
453.272 
463.696 
453.681 
508.264 
519.697 
462.457 
441.387 
489.506 
445.4 
440.965 
473.056 
447.954 
452.199 
414.944 
467.903 
468.427 
434.076 
450.616 
573.903 
479.49 
495.691 
550.305 
472.475 
488.523 
517.386 
539.544 
438.737 
531.658 
555.25 
500.535 
570.663 
479.964 
479.798 
495.589 
426.777 
471.88 
467.735 
431.499 
547.505 
523.405 
466.438 
524.221 
530.469 
481.385 
467.489 
483.386 
525.472 
458.637 
506.873 
428.736 
527.102 
467.398 
520.976 
502.996 
454.811 
496.611 
453.685 
512.399 
495.026 
498.195 
453.742 
446.986 
505.798 
448.179 
564.968 
525.071 
529.115 
