ITEM: TIMESTEP
4500000
ITEM: NUMBER OF CELLS
1000
ITEM: BOX BOUNDS ss rr pp
0 0.004
0 0.01
-0.5 0.5
ITEM: CELLS f_temp1[*] 
298.869 
276.38 
314.197 
310.365 
274.395 
292.086 
263.604 
283.541 
322.057 
292.628 
270.173 
285.375 
308.319 
281.543 
290.431 
260.975 
288.93 
281.322 
291.863 
303.219 
280.88 
296.771 
311.626 
279.313 
290.026 
296.44 
336.383 
243.776 
311.169 
304.095 
321.155 
300.789 
316.562 
290.738 
290.896 
273.697 
299.923 
336.18 
306.053 
293.453 
274.374 
324.924 
306.578 
316.434 
298.528 
290.132 
302.212 
292.077 
328.274 
331.152 
301.289 
292.455 
305.393 
339.068 
312.997 
309.698 
333.163 
295.685 
294.801 
322.45 
332.689 
292.273 
312.743 
301.175 
306.354 
296.438 
297.657 
259.036 
290.352 
343.521 
288.798 
313.029 
300.801 
285.407 
291.516 
278.253 
298.365 
303.316 
303.912 
311.342 
307.116 
331.374 
295.88 
321.282 
319.611 
363.667 
297.423 
328.158 
327.851 
306.612 
306.322 
307.706 
310.454 
326.904 
369.509 
330.975 
306.563 
317.261 
323.534 
297.158 
328.311 
303.938 
335.279 
338.597 
337.121 
369.536 
315.764 
342.191 
356.777 
348.31 
347.628 
357.101 
332.792 
325.491 
369.826 
332.096 
341.15 
323.128 
316.797 
293.614 
327.301 
347.566 
340.89 
308.338 
318.399 
335.94 
329.985 
319.146 
349.786 
332.683 
372.537 
371.375 
375.011 
342.062 
317.8 
300.497 
323.324 
369.854 
338.134 
330.147 
339.709 
327.837 
378.094 
318.533 
327.475 
345.244 
326.312 
344.942 
339.169 
323.352 
341.489 
320.475 
367.726 
356.098 
329.432 
335.817 
316.836 
307.975 
365.144 
303.793 
331.897 
363.348 
317.025 
332.8 
333.467 
309.297 
357.041 
348.113 
346.925 
320.397 
324.454 
307.915 
308.4 
322.147 
342.009 
300.803 
331.452 
372.627 
320.921 
364.497 
292.23 
375.99 
310.396 
326.82 
320.757 
306.004 
336.893 
356.877 
331.886 
344.78 
308.311 
348.829 
323.053 
323.033 
354.343 
361.119 
325.166 
363.65 
339.477 
396.791 
361.504 
305.79 
328.646 
334.487 
364.066 
341.075 
334.715 
339.5 
352.871 
375.695 
383.9 
370.165 
304.459 
356.457 
368.425 
346.423 
388.555 
365.357 
379.298 
366.645 
332.148 
368.097 
319.317 
340.903 
355.754 
336.578 
352.725 
358.125 
333.303 
333.462 
366.989 
385.067 
331.94 
349.38 
386.824 
339.096 
375.259 
313.132 
341.447 
340 
365.663 
352.688 
376.858 
361.821 
340.742 
373.688 
368.163 
344.517 
299.271 
360.298 
364.841 
309.936 
355.459 
365.044 
372.364 
358.125 
355.316 
345.66 
365.607 
380.787 
357.723 
287.324 
373.13 
347.722 
378.535 
346.386 
381.704 
386.138 
357.38 
356.105 
336.983 
326.924 
353.945 
356.74 
306.116 
335.233 
316.059 
378.605 
389.105 
319.734 
346.033 
356.081 
406.306 
360.472 
399.099 
408.084 
367.085 
357.495 
350.563 
366.522 
379.463 
319.672 
345.547 
353.945 
371.943 
310.435 
371.906 
338.908 
375.556 
344.578 
371.748 
407.684 
377.676 
344.854 
361.937 
406.995 
315.476 
355.844 
380.998 
400.17 
337.72 
347.24 
379.153 
377.119 
313.712 
335.259 
333.279 
366.394 
316.916 
333.051 
343.2 
350.091 
366.47 
386.103 
364.221 
340.904 
361.104 
374.119 
319.034 
341.736 
360.839 
364.029 
342.216 
385.631 
369.102 
332.815 
338.602 
330.064 
352.769 
311.146 
389.395 
365.23 
403.221 
333.644 
356.344 
373.105 
375.139 
385.624 
322.025 
368.955 
411.544 
370.739 
344.203 
337.629 
396.154 
343.788 
368.846 
372.198 
372.497 
374.854 
420.549 
378.137 
382.733 
409.277 
329.902 
420.168 
358.059 
430.428 
392.147 
379.288 
369.448 
382.882 
316.115 
388.215 
369.48 
403.151 
401.874 
367.17 
417.373 
313.802 
402.416 
388.637 
344.278 
370.971 
377.595 
393.192 
392.803 
358.753 
392.901 
339.312 
386.736 
383.32 
388.379 
424.569 
432.585 
344.372 
384.626 
360.907 
372.291 
359.189 
394.967 
351.255 
391.554 
417.264 
400.395 
382.834 
390.531 
384.336 
353.855 
393.742 
356.766 
373.99 
360.294 
391.253 
375.386 
411.195 
373.732 
326.904 
402.543 
360.513 
369.682 
384.391 
384.482 
349.803 
370.624 
367.643 
381.278 
404.311 
353.06 
396.102 
353.716 
404.997 
393.19 
396.98 
378.597 
396.488 
381.486 
386.206 
359.074 
372.7 
410.336 
395.176 
407.785 
387.139 
420.488 
399.206 
388.103 
376.883 
379.925 
375.898 
392.595 
411.655 
415.191 
426.928 
358.164 
393.939 
400.759 
432.941 
426.501 
324.901 
379.31 
498.374 
357.197 
404.622 
357.571 
363.3 
374.872 
392.041 
496.271 
389.212 
412.908 
414.369 
429.387 
396.541 
447.045 
438.524 
405.919 
384.345 
413.353 
416.533 
372.164 
337.552 
419.257 
444.89 
373.209 
401.86 
381.189 
380.989 
406.25 
394.698 
407.676 
387.041 
375.76 
389.018 
362.379 
410.354 
374.699 
387.629 
376.076 
384.078 
427.418 
395.487 
385.402 
410.554 
393.356 
403.36 
384.699 
413.27 
404.165 
356.505 
426.519 
419.394 
414.308 
368.251 
409.869 
410.295 
394.251 
392.924 
368.92 
395.634 
362.8 
402.417 
397.106 
432.025 
443.329 
426.05 
441.78 
461.544 
387.512 
406.494 
414.518 
463.465 
378.216 
385.681 
393.949 
382.916 
354.222 
426.318 
449.087 
375.232 
438.605 
369.096 
473.572 
419.072 
413.375 
432.104 
392.539 
445.175 
396.422 
400.424 
418.719 
413.309 
431.145 
415.013 
388.762 
414.249 
391.134 
428.151 
353.629 
383.456 
466.348 
425.355 
386.83 
370.972 
419.76 
362.026 
383.955 
410.715 
436.088 
386.212 
482.03 
417.953 
463.929 
440.717 
423.332 
371.374 
441.381 
369.386 
444.664 
418.895 
442.834 
397.726 
444.433 
408.528 
418.399 
431.122 
451.126 
405.859 
397.344 
422.526 
425.43 
437.293 
384.777 
403.746 
404.114 
385.664 
415.106 
376.544 
452.937 
416.77 
452.511 
418.549 
454.782 
406.387 
425.04 
492.095 
425.812 
468.443 
449.347 
447.14 
408.854 
451.906 
441.419 
386.213 
490.74 
445.284 
439.635 
421.205 
479.92 
497.886 
434.971 
475.674 
411.431 
430.571 
426.766 
391.583 
427.965 
499.448 
489.489 
452.226 
445.168 
415.829 
465.834 
486.458 
438.639 
494.131 
405.928 
393.222 
432.738 
443.507 
502.646 
408.568 
438.524 
469.28 
434.287 
404.374 
403.479 
487.34 
427.118 
469.206 
408.989 
396.712 
438.853 
362.307 
411.982 
382.635 
426.888 
449.384 
423.297 
411.04 
437.97 
430.978 
443.104 
455.143 
403.726 
483.629 
374.34 
479.072 
436.693 
448.17 
482.057 
430.354 
454.138 
477.76 
508.502 
468.462 
431.858 
458.844 
436.277 
392.852 
452.702 
460.233 
457.601 
426.423 
493.531 
487.578 
478.634 
501.6 
456.111 
438.989 
458.303 
389.982 
403.702 
423.705 
412.591 
460.179 
415.602 
431.235 
490.194 
421.966 
453.199 
408.442 
426.022 
424 
418.79 
487.186 
475.45 
400.114 
500.129 
471.779 
458.601 
520.69 
436.886 
473.196 
402.254 
518.601 
445.65 
501.912 
432.692 
447.086 
509.884 
439.778 
463.397 
469.002 
466.382 
485.818 
496.389 
435.224 
408.853 
474.985 
443.141 
432.676 
516.596 
439.599 
462.243 
464.47 
454.913 
448.973 
443.686 
461.945 
415.6 
517.013 
516.602 
419.156 
470.014 
495.818 
401.885 
442.643 
425.739 
453.1 
421.414 
503.264 
555.017 
477.32 
477.376 
456.968 
493.888 
454.978 
429.972 
494.416 
447.339 
509.011 
444.825 
427.284 
412.863 
510.108 
448.009 
439.21 
526.587 
399.564 
429.899 
417.66 
446.238 
401.039 
417.294 
434.094 
403.721 
433.118 
449.729 
429.206 
440.357 
445.256 
498.837 
390.976 
427.611 
479.733 
478.838 
438.158 
431.678 
479.661 
472.138 
452.311 
429.993 
430.096 
450.649 
497.447 
426.061 
422.576 
466.363 
479.807 
473.472 
439.679 
453.13 
485.652 
474.01 
466.72 
433.484 
419.561 
439.077 
468.99 
486.466 
486.075 
497.374 
517.574 
463.93 
485.529 
472.319 
472.429 
402.794 
464.259 
461.91 
501.561 
455.214 
425.661 
420.3 
467.626 
419.89 
411.911 
426.969 
453.685 
506.662 
466.822 
455.003 
410.454 
540.018 
435.593 
475.662 
474.603 
479.479 
456.878 
487.031 
429.654 
434.663 
443.971 
435.936 
445.837 
431.085 
412.745 
500.363 
469.302 
461.564 
436.745 
519.659 
425.873 
437.857 
445.993 
423.684 
536.633 
507.43 
503.836 
436.687 
421.867 
552.554 
426.721 
479.467 
433.457 
423.51 
501.535 
500.834 
377.253 
466.681 
544.712 
541.164 
520.028 
423.62 
465.631 
447.021 
509.946 
445.623 
504.777 
479.848 
467.573 
507.721 
426.709 
486.661 
513.97 
506.522 
475.226 
468.033 
423.34 
491.001 
463.069 
435.963 
443.958 
453.289 
406.914 
480.726 
445.488 
528.832 
465.3 
428.009 
439.361 
428.858 
459.306 
509.663 
479.276 
398.145 
415.81 
532.678 
584.651 
497.778 
522.068 
479.533 
555.24 
446.168 
484.572 
483.886 
476.648 
464.756 
473.541 
496.973 
453.179 
459.757 
491.009 
493.275 
498.848 
527.619 
454.665 
472.965 
480.082 
460.682 
476.348 
504.393 
464.863 
495.2 
484.834 
439.598 
506.921 
460.709 
445.027 
485.985 
494.635 
499.604 
530.387 
451.653 
460.975 
494.468 
394.886 
520.314 
463.323 
502.681 
440.818 
502.375 
502.403 
489.448 
538.945 
468.287 
509.817 
601.393 
452.099 
515.231 
514.888 
511.947 
467.61 
474.747 
451.984 
570.808 
509.077 
580.003 
502.355 
533.587 
536.245 
491.804 
439.466 
459.401 
491.406 
604.288 
530.665 
448.334 
469.144 
513.406 
487.34 
458.642 
538.301 
474.908 
519.825 
504.559 
509.166 
518.43 
451.098 
428.888 
521.069 
507.568 
517.84 
487.395 
516.97 
524.224 
398.912 
536.979 
536.867 
