ITEM: TIMESTEP
7800000
ITEM: NUMBER OF CELLS
1000
ITEM: BOX BOUNDS ss rr pp
0 0.004
0 0.01
-0.5 0.5
ITEM: CELLS f_temp1[*] 
332.457 
289.935 
303.854 
307.61 
312.089 
282.69 
308.043 
291.913 
300.689 
282.658 
300.865 
301.511 
299.264 
278.727 
282.675 
268.918 
296.176 
317.871 
268.853 
314.829 
284.581 
302.277 
304.832 
304.335 
321.718 
306.748 
345.074 
340.36 
326.217 
308.32 
306.574 
333.205 
350.147 
299.339 
321.849 
344.895 
347.626 
330.305 
331.584 
317.064 
340.503 
314.763 
322.668 
299.039 
337.27 
304.181 
269.508 
319.61 
262.717 
302.73 
322.074 
371.816 
278.911 
291.274 
334.872 
312.579 
295.897 
366.486 
335.855 
326.47 
316.78 
319.299 
328.982 
300.723 
320.17 
325.093 
344.212 
315.146 
326.402 
293.975 
334.346 
323.306 
341.973 
314.266 
324.346 
342.979 
295.877 
290.203 
287.23 
275.384 
268.52 
303.452 
312.139 
311.395 
316 
274.935 
315.527 
281.349 
302.366 
303.476 
320.635 
288.798 
295.716 
315.201 
311.259 
323.003 
352.528 
309.81 
306.599 
312.166 
347.556 
303.417 
315.183 
319.22 
287.569 
297.608 
325.522 
297.936 
298.497 
281.01 
307.442 
280.342 
336.905 
283.862 
301.524 
348.033 
344.07 
323.881 
326.248 
346.306 
344.785 
305.364 
301.056 
289.595 
330.798 
331.645 
306.431 
313.916 
286.325 
306.768 
295.876 
289.078 
320.649 
302.153 
340.615 
305.423 
342.765 
320.504 
333.348 
326.868 
339.971 
349.467 
302.97 
293.298 
327.094 
339.111 
340.706 
305.37 
317.483 
295.508 
267.214 
361.557 
332.357 
321.592 
307.182 
301.565 
342.394 
312.534 
321.207 
329.285 
357.546 
322.887 
328.809 
329.002 
304.082 
341.004 
318.771 
304.393 
330.637 
283.056 
319.615 
345.161 
324.919 
335.708 
346.949 
324.415 
297.675 
335.485 
322.661 
306.737 
357.326 
340.204 
369.135 
368.052 
355.316 
323.952 
331.853 
309.441 
333.083 
336.61 
367.245 
328.806 
353.335 
308.98 
364.192 
358.449 
331.826 
345.768 
345.1 
325.487 
341.673 
320.2 
340.873 
357.843 
325.132 
357.74 
362.063 
327.57 
315.765 
388.968 
387.836 
356.201 
318.695 
315.795 
296.211 
332.467 
351.803 
322.555 
332.503 
371.071 
366.296 
328.944 
355.477 
357.877 
337.141 
340.625 
360.488 
358.13 
332.148 
348.137 
354.548 
355.602 
377.213 
367.604 
350.123 
383.423 
311.267 
378.977 
374.321 
369.69 
367.072 
371.51 
338.846 
350.062 
364.663 
408.21 
378.363 
353.587 
380.455 
385.397 
374.416 
408.748 
348.925 
353.741 
361.46 
387.322 
369.875 
428.686 
412.803 
356.002 
379.862 
357.606 
398.2 
328.841 
379.341 
398.858 
357.192 
292.608 
346.545 
326.289 
387.025 
352.631 
395.456 
361.52 
364.822 
400.406 
389.325 
394.502 
410.789 
449.957 
402.722 
373.422 
392.272 
365.133 
422.313 
417.427 
386.25 
364.735 
424.124 
415.749 
370.103 
353.136 
397.77 
425.959 
346.427 
357.976 
393.444 
386.687 
397.234 
389.365 
399.656 
378.44 
390.668 
349.376 
397.143 
332.154 
372.477 
378.629 
356.185 
353.732 
382.773 
388.186 
344.462 
376.502 
363.609 
373.534 
384.048 
389.342 
415.58 
363.386 
364.277 
359.592 
358.399 
360.439 
379.702 
392.636 
363.957 
380.554 
374.71 
362.9 
401.687 
391.493 
386.528 
353.389 
404.631 
379.794 
387.097 
404.489 
366.305 
381.374 
359.658 
312.506 
405.689 
340.538 
354.554 
364.141 
371.681 
394.913 
371.791 
342.043 
435.913 
414.928 
367.287 
412.683 
397.431 
350.438 
376.456 
366.61 
333.459 
380.946 
330.406 
385.721 
336.396 
415.701 
404.011 
384.341 
395.388 
381.553 
382.239 
387.463 
360.254 
384.083 
361.934 
415.831 
363.081 
372.737 
349.785 
344.552 
358.091 
370.987 
359.164 
370.159 
374.516 
366.164 
410.287 
353.97 
400.864 
374.382 
353.896 
410.636 
388.642 
362.962 
346.399 
356.143 
375.88 
352.056 
367.046 
365.442 
409.623 
418.339 
370.31 
365.537 
398.673 
337.997 
376.894 
394.745 
380.074 
400.304 
443.117 
367.648 
401.088 
382.777 
417.039 
410.308 
402.853 
398.874 
422.661 
413.459 
402.05 
395.189 
342.23 
429.434 
446.245 
375.539 
452.728 
432.937 
418.329 
362.628 
409.221 
440.483 
385.775 
413.193 
397.986 
400.376 
390.511 
391.872 
436.047 
381.003 
389.727 
378.207 
415.562 
377.521 
380.126 
417.412 
485.515 
435.917 
379.277 
340.613 
395.489 
390.785 
412.498 
407.99 
428.58 
387.234 
404.533 
405.6 
456.889 
445.186 
403.905 
383.106 
432.681 
435.744 
433.284 
425.687 
435.454 
437.802 
354.5 
447.738 
387.215 
397.39 
467.595 
353.985 
377.256 
394.875 
338.467 
377.343 
398.22 
417.94 
385.267 
411.038 
364.33 
441.342 
395.817 
427.369 
388.942 
442.466 
402.455 
477.837 
463.08 
415.803 
408.439 
427.6 
435.505 
405.193 
418.529 
374.528 
375.71 
345.145 
395.683 
372.567 
435.821 
479.161 
441.426 
435.669 
486.645 
419.301 
421.403 
459.17 
422.987 
380.087 
373.553 
362.706 
396.343 
389.083 
363.021 
373.521 
394.328 
357.777 
388.847 
407.327 
421.741 
390.175 
467.714 
428.943 
424.481 
396.436 
370.558 
415.841 
398.502 
416.027 
367.603 
392.508 
338.965 
380.157 
410.562 
398.981 
438.305 
415.578 
468.999 
413.185 
351.027 
426.92 
378.631 
370.101 
435.946 
419.335 
413.413 
387.843 
381.344 
491.593 
425.088 
390.298 
429.017 
385.461 
415.371 
383.469 
456.105 
387.502 
466.437 
357.018 
433.899 
408.945 
399.039 
427.472 
421.815 
361.581 
375.516 
472.095 
433.586 
476.337 
445.285 
413.795 
402.297 
407.15 
403.706 
420.297 
414.278 
469.021 
473.162 
422.131 
438.895 
403.401 
428.803 
457.489 
436.127 
413.368 
422.867 
442.785 
494.242 
388.934 
393.202 
453.076 
442.602 
418.556 
398.696 
381.56 
379.191 
486.982 
395.369 
531.466 
408.842 
453.877 
496.334 
447.977 
427.039 
450.889 
461.205 
487.949 
489.721 
461.009 
420.79 
435.889 
484.743 
509.11 
504.924 
488.398 
426.428 
437.747 
462.042 
463.096 
558.054 
493.08 
486.141 
487.326 
409.312 
491.227 
443.554 
406.798 
493.093 
483.517 
452.108 
435.652 
465.55 
449.433 
436.112 
472.3 
438.706 
433.548 
446.692 
383.789 
443.595 
378.362 
455.888 
454.168 
453.845 
485.392 
462.64 
448.618 
451.383 
482.283 
451.46 
404.252 
503.577 
412.316 
473.675 
404.257 
417.337 
486.077 
477.416 
400.189 
478.793 
425.474 
434.636 
437.056 
387.421 
405.25 
373.287 
418.551 
418.304 
466.384 
474.463 
505.044 
409.511 
465.603 
462.728 
444.267 
465.132 
438.253 
445.285 
443.922 
469.66 
453.627 
413.582 
443.12 
430.231 
422.723 
441.914 
410.83 
368.312 
444.958 
399.019 
432.978 
392.566 
425.593 
393.32 
446.84 
420.24 
433.746 
467.823 
411.822 
405.387 
441.657 
450.489 
464.892 
397.266 
414.582 
508.989 
411.281 
439.39 
511.227 
423.921 
410.249 
406.258 
417.477 
431.242 
469.711 
502.201 
446.926 
451.159 
452.114 
405.412 
452.198 
417.756 
459.132 
486.395 
463.303 
458.211 
494.341 
413.036 
506.076 
426.816 
474.684 
436.606 
508.781 
495.256 
430.658 
470.317 
455.688 
455.927 
488.18 
469.444 
470.585 
474.277 
417.517 
433.007 
460.236 
498.083 
473.479 
444.879 
450.685 
459.717 
445.98 
417.368 
458.375 
437.705 
423.45 
433.423 
412.035 
511.984 
394.624 
475.579 
428.604 
505.332 
549.402 
441.606 
477.793 
554.757 
433.665 
416.714 
430.101 
488.643 
476.968 
450.178 
416.482 
434.766 
470.506 
418.781 
496.542 
447.935 
409.301 
454.43 
447.59 
437.799 
437.23 
479.275 
437.365 
482.39 
460.335 
428.488 
442.8 
414.597 
478.224 
455.868 
459.211 
479.736 
418.261 
499.326 
512.699 
462.358 
413.79 
467.861 
429.24 
510.611 
445.209 
419.218 
415.874 
432.158 
487.822 
486.634 
422.947 
435.818 
485.274 
443.273 
465.151 
483.717 
502.015 
438.631 
453.77 
469.605 
532.528 
454.225 
459.375 
430.717 
490.896 
443.847 
475.394 
472.532 
493.871 
458.506 
496.695 
492.756 
480.099 
514.088 
489.115 
477.061 
499.34 
487.388 
501.964 
425.973 
486.786 
483.642 
426.059 
432.452 
504.229 
494.706 
445.482 
393.678 
446.36 
463.081 
441.742 
368.986 
392.03 
454.688 
402.417 
466.684 
442.603 
460.787 
447.789 
488.572 
520.341 
463.801 
491.794 
521.284 
433.436 
420.384 
502.924 
441.715 
528.105 
541.817 
468.581 
438.93 
486.545 
446.186 
451.776 
401.644 
448.852 
392.31 
499.075 
422.059 
508.407 
485.006 
476.919 
494.877 
460.758 
443.672 
507.743 
482.784 
493.345 
472.82 
442.025 
550.806 
461.054 
470.993 
458.274 
530.326 
450.061 
480.425 
463.047 
457.815 
480.271 
389.598 
459.316 
485.719 
491.924 
508.736 
502.593 
468.793 
516.127 
453.975 
425.118 
466.348 
477.422 
485.511 
470.308 
530.628 
483.549 
490.917 
457.993 
454.125 
502.946 
405.097 
498.538 
522.08 
487.404 
527.586 
406.908 
508.097 
476.947 
450.32 
481.574 
474.777 
524.483 
496.989 
574.165 
472.906 
546.457 
486.9 
470.706 
442.666 
531.587 
436.724 
519.04 
415.836 
427.407 
510.275 
452.84 
472.775 
501.96 
506.417 
520.914 
583.839 
502.183 
480.146 
517.633 
441.336 
449.249 
506.702 
492.35 
465.173 
508.717 
485.537 
561.438 
461.159 
492.637 
520.767 
522.898 
558.362 
487.627 
577.834 
529.214 
452.291 
525.893 
425.043 
460.53 
472.483 
477.958 
502.059 
475.997 
580.489 
503.908 
485.995 
541.92 
489.966 
499.685 
484.439 
521.219 
505.857 
518.606 
529.524 
562.699 
485.996 
514.98 
548.734 
513.549 
524.42 
536.915 
504.519 
531.837 
534.317 
534.93 
