ITEM: TIMESTEP
3900000
ITEM: NUMBER OF CELLS
1000
ITEM: BOX BOUNDS ss rr pp
0 0.004
0 0.01
-0.5 0.5
ITEM: CELLS f_temp1[*] 
290.461 
282.203 
284.502 
272.293 
276.961 
310.332 
269.362 
292.74 
297.924 
297.646 
307.445 
268.606 
277.083 
290.924 
326.182 
291.449 
297.359 
291.12 
309.572 
327.31 
292.603 
292.826 
320.07 
321.55 
285.999 
369.398 
299.042 
294.363 
327.615 
275.878 
310.176 
308.176 
347.585 
315.146 
295.7 
297.106 
292.917 
316.301 
303.263 
258.07 
323.01 
345.627 
291.863 
321.047 
318.081 
324.662 
334.324 
306.477 
327.765 
294.873 
347.763 
301.109 
329.998 
351.108 
325.852 
340.87 
325.673 
309.39 
366.395 
314.014 
376.453 
378.591 
325.32 
345.885 
355.755 
306.24 
328.688 
307.175 
294.996 
312.813 
352.276 
297.118 
272.846 
314.342 
327.534 
308.319 
316.049 
294.626 
295.336 
350.578 
338.047 
298.979 
307.663 
302.055 
281.851 
313.412 
337.023 
313.123 
306.121 
313.393 
311.978 
340.434 
385.844 
333.362 
352.372 
331.334 
327.758 
314.768 
267.564 
308.589 
345.581 
336.344 
367.424 
313.078 
378.78 
342.213 
357.796 
366.68 
356.002 
332.649 
329.737 
343.958 
336.106 
353.504 
375.594 
361.605 
309.699 
328.007 
361.328 
338.216 
354.262 
319.089 
357.318 
328.456 
363.905 
345.225 
328.894 
355.22 
332.063 
372.098 
373.926 
377.415 
369.595 
435.502 
353.772 
384.905 
337.498 
345.588 
382.926 
350.05 
321.146 
345.125 
347.149 
376.553 
335.015 
324.659 
362.104 
333.953 
324.393 
342.498 
358.052 
334.664 
354.448 
353.071 
363.829 
333.576 
308.424 
337.318 
360.826 
382.66 
369.384 
362.63 
357.303 
356.25 
322.862 
329.89 
343.423 
320.083 
362.208 
345.204 
338.825 
320.431 
336.283 
358.654 
324.469 
355.649 
383.549 
377.152 
369.145 
373.632 
381.558 
334.465 
350.294 
382.56 
348.02 
361.329 
356.583 
338.417 
349.407 
326.914 
373.657 
342.186 
359.902 
365.091 
376.451 
324.335 
368.604 
315.392 
370.472 
378.253 
333.439 
366.778 
335.58 
365.111 
356.851 
367.112 
378.63 
357.895 
322.235 
339.554 
317.267 
326.78 
381.406 
354.102 
348.894 
365.935 
365.376 
324.736 
375.014 
378.937 
353.355 
361.922 
333.496 
380.463 
378.003 
336.942 
344.528 
386.257 
322.161 
340.936 
341.403 
345.869 
381.995 
369.019 
349.746 
359.125 
328.547 
336.078 
370.161 
318.314 
328.716 
329.047 
337.351 
354.532 
383.896 
352.607 
321.384 
342.147 
344.3 
362.331 
380.764 
365.098 
339.39 
364.729 
395.298 
360.328 
385.593 
365.762 
369.153 
349.095 
355.083 
356.161 
340.529 
312.789 
355.024 
329.839 
336.152 
349.301 
348.13 
410.467 
332.093 
419.54 
393.15 
385.729 
391.547 
363.763 
351.716 
361.723 
328.245 
352.868 
379.794 
333.933 
392.507 
381.297 
393.787 
380.737 
404.355 
407.371 
398.914 
342.009 
376.108 
383.263 
413.862 
403.182 
375.495 
406.448 
393.885 
382.421 
384.413 
399.868 
366.718 
359.117 
396.403 
373.762 
453.152 
394.298 
325.731 
373.426 
364.434 
360.106 
380.193 
415.256 
360.851 
366.162 
393.287 
363.763 
385.586 
390.035 
381.467 
394.38 
376.561 
371.388 
404.976 
374.857 
328.574 
373.461 
404.591 
377.807 
358.43 
421.119 
366.023 
377.307 
406.245 
339.445 
414.017 
353.972 
317.735 
394.928 
378.004 
376.171 
370.168 
364.815 
389.856 
379.767 
368.914 
392.158 
400.585 
370.882 
375.2 
367.029 
385.883 
350.638 
350.431 
375.885 
381.044 
368.913 
439.11 
389.273 
358.479 
350.061 
416.002 
334.825 
370.195 
351.081 
372.865 
341.275 
362.709 
390.234 
380.652 
384.886 
380.757 
374.669 
377.259 
384.082 
343.427 
380.683 
425.24 
390.641 
423.57 
391.926 
393.252 
421.027 
417.822 
354.282 
389.135 
420.08 
402.027 
388.174 
344.305 
343.531 
385.01 
357.928 
412.545 
388.653 
378.428 
400.064 
405.426 
368.248 
424.697 
413.693 
404.713 
376.549 
389.679 
389.84 
381.496 
385.003 
404.045 
384.578 
391.324 
426.104 
317.456 
388.326 
394.871 
377.538 
416.494 
401.48 
343.536 
411.872 
398.794 
368.179 
404.957 
362.817 
462.665 
378.334 
383.947 
385.333 
384.487 
424.309 
398.022 
456.141 
408.689 
405.336 
387.103 
375.954 
449.592 
353.933 
380.76 
397.171 
410.779 
370.225 
391.047 
406.491 
426.807 
424.198 
412.833 
459.769 
400.316 
400.059 
471.864 
429.762 
386.082 
387.277 
391.979 
387.36 
422.739 
422.593 
396.153 
432.901 
422.698 
398.501 
346.475 
431.53 
395.215 
415.017 
411.341 
357.302 
431.383 
345.346 
415.046 
424.318 
416.46 
385.001 
369.299 
369.499 
373.407 
363.507 
367.272 
396.564 
412.264 
396.382 
379.442 
435.228 
376.861 
398.968 
386.432 
381.257 
437.839 
429.917 
471.825 
425.853 
386.171 
383.782 
421.702 
374.6 
388.676 
388.509 
379.556 
385.675 
399.833 
404.445 
452.347 
380.06 
352.311 
478.384 
397.387 
417.616 
412.516 
442.673 
409.308 
396.198 
402.983 
377.405 
404.319 
442.429 
470.084 
385.79 
421.953 
415.292 
445.055 
459.377 
470.216 
345.157 
418.133 
412.195 
464.373 
444.34 
448.14 
492.962 
459.788 
437.503 
384.761 
432.262 
443.543 
452.548 
405.23 
501.701 
426.907 
421.296 
472.125 
424.912 
444.857 
425.016 
482.178 
397.21 
474.243 
443.72 
437.589 
440.723 
433.727 
416.989 
496.011 
445.511 
411.022 
420.624 
485.442 
399.623 
462.033 
466.283 
476.668 
389.951 
437.657 
457.578 
436.627 
480.129 
410.456 
385.31 
484.238 
457.817 
439.341 
426.794 
410.529 
382.687 
425.758 
456.421 
477.674 
448.98 
481.304 
426.566 
487.376 
516.031 
429.955 
434.401 
468.748 
500.116 
481.722 
434.962 
446.595 
418.148 
410.804 
423.602 
494.948 
446.691 
479.014 
469.385 
472.95 
465.315 
487.26 
467.285 
437.023 
450.179 
397.555 
429.889 
326.712 
399.145 
444.016 
451.538 
374.274 
417.925 
472.864 
451.207 
417.195 
462.909 
425.85 
406.816 
409.669 
452.356 
481.982 
425.85 
462.603 
442.553 
473.069 
379.223 
411.382 
427.741 
444.295 
466.781 
453.386 
431.882 
471.432 
451.875 
450.263 
476.308 
406.402 
467.419 
391.917 
415.222 
511.753 
459.979 
407.387 
452.643 
424.559 
431.572 
475.392 
435.133 
476.45 
467.781 
431.916 
452.367 
446.396 
414.731 
447.747 
431.255 
435.715 
507.467 
490.737 
415.398 
444.289 
408.433 
405.919 
451.767 
438.122 
477.792 
428.374 
383.114 
454.123 
398.727 
429.793 
442.599 
414.076 
453.429 
481.686 
462.529 
425.323 
509.563 
433.891 
473.31 
415.357 
374.254 
437.153 
457.066 
464.396 
443.612 
435.54 
451.284 
461.253 
497.229 
416.832 
377.455 
409.76 
487.45 
455.539 
459.441 
465.512 
420.083 
496.057 
539.501 
531.541 
456.208 
495.199 
452.508 
466.005 
448.94 
478.348 
486.382 
429.713 
406.508 
473.595 
504.941 
529.244 
442.676 
451.683 
514.796 
507.919 
430.192 
381.566 
439.019 
436.056 
403.177 
472.712 
481.389 
471.705 
468.36 
499.12 
483.284 
453.859 
489.518 
446.773 
421.755 
434.848 
429.054 
450.742 
460.89 
430.967 
399.756 
418.667 
428.653 
473.741 
429.295 
454.36 
446.269 
420.355 
437.483 
466.69 
485.727 
393.43 
469.01 
476.125 
441.379 
425.883 
425.321 
460.101 
457.069 
452.705 
436.503 
427.466 
497.147 
464.498 
381.241 
442.105 
401.183 
429.957 
476.427 
442.971 
424.625 
473.881 
423.019 
428.546 
455.976 
378.507 
483.62 
460.396 
449.97 
437.982 
475.825 
469.026 
477.949 
384.835 
454.577 
523.805 
445.99 
442.585 
462.937 
445.306 
442.787 
457.123 
406.538 
482.39 
440.793 
436.557 
485.796 
475.953 
497.091 
426.179 
412.67 
407.55 
441.965 
392.434 
428.26 
437.325 
514.932 
488.941 
481.464 
421.296 
493.327 
488.161 
485.635 
440.245 
499.894 
477.118 
514.445 
427.824 
464.208 
483.302 
478.251 
454.936 
455.35 
480.913 
468.322 
528.161 
522.568 
462.549 
495.356 
472.533 
485.065 
458.054 
495.579 
438.199 
401.124 
489.495 
497.1 
511.771 
539.171 
440.861 
471.325 
514.082 
498.726 
436.988 
454.584 
442.136 
531.905 
570.855 
464.089 
452.027 
506.297 
507.839 
423.125 
466.767 
455.948 
447.543 
393.535 
457.184 
517.176 
476.469 
423.375 
400.631 
427.635 
470.135 
503.429 
518.383 
436.349 
468.432 
468.364 
444.685 
477.285 
539.737 
451.49 
458.769 
473.515 
457.116 
539.038 
468.203 
478.14 
539.719 
469.919 
457.406 
474.552 
471.069 
545.62 
507.883 
456.82 
509.806 
534.272 
469.925 
513.652 
504.596 
498.813 
480.838 
434.088 
421.464 
464.361 
433.43 
488.267 
445.34 
469.853 
453.348 
474.169 
532.304 
486.106 
448.807 
512.593 
541.505 
532.513 
508.593 
454.039 
473.142 
498.586 
403.61 
503.25 
464.56 
474.304 
521.027 
461.091 
473.975 
552.23 
550.186 
487.221 
508.945 
455.066 
458.473 
560.965 
491.18 
467.499 
485.66 
473.61 
483.8 
507.107 
480.653 
430.78 
456.269 
450.195 
500.634 
530.52 
521.249 
487.915 
479.841 
511.328 
480.497 
482.688 
503.421 
510.666 
493.394 
446.84 
448.546 
437.732 
469.205 
466.688 
505.19 
485.532 
498.066 
421.095 
514.027 
509.423 
575.674 
456.792 
490.956 
549.623 
514.138 
515.038 
519.477 
441.249 
488.915 
453.943 
556.026 
425.599 
477.9 
493.051 
468.302 
546.18 
492.069 
478.11 
528.672 
499.284 
541.428 
556.282 
517.074 
478.797 
513.117 
494.62 
518.311 
491.413 
473.573 
501.34 
590.131 
457.618 
523.559 
500.076 
413.781 
494.124 
474.528 
448.833 
518.134 
519.144 
491.786 
500.762 
556.67 
528.924 
523.57 
486.248 
500.241 
469.43 
