ITEM: TIMESTEP
6200000
ITEM: NUMBER OF CELLS
1000
ITEM: BOX BOUNDS ss rr pp
0 0.004
0 0.01
-0.5 0.5
ITEM: CELLS f_temp1[*] 
299.25 
315.27 
313.125 
316.842 
316.059 
319.376 
328.672 
348.566 
295.793 
337.489 
328.881 
318.068 
318.662 
309.181 
298.164 
305.911 
312.686 
288.316 
312.012 
322.034 
308.018 
306.848 
322.103 
326.571 
287.266 
306.281 
314.936 
313.791 
341.608 
335.371 
334.497 
303.047 
328.884 
310.302 
272.266 
312.805 
316.845 
311.295 
309.336 
302.122 
280.172 
294.092 
310.359 
300.867 
297.834 
321.055 
313.288 
330.922 
318.193 
302.494 
292.739 
284.143 
329.087 
338.087 
336.792 
319.929 
282.332 
300.611 
300.157 
327.795 
340.349 
354.073 
346.02 
342.154 
341.882 
307.479 
323.712 
322.517 
337.978 
321.35 
300.454 
370.862 
333.191 
287.749 
323.354 
293.886 
329.61 
319.75 
280.291 
323.425 
305.854 
360.218 
323.93 
341.455 
323.472 
349.262 
320.03 
344.608 
308.848 
336.297 
291.509 
318.174 
327.663 
343.379 
345.333 
354.464 
347.454 
354.031 
352.86 
329.959 
286.057 
294.794 
302.922 
326.647 
352.706 
320.61 
325.769 
326.128 
333.718 
334.365 
325.166 
341.267 
374.505 
347.662 
350.108 
362.385 
364.969 
332.834 
323.016 
337.486 
337.332 
325.519 
353.447 
321.841 
347.913 
319.036 
296.65 
324.856 
353.004 
342.095 
345.318 
339.093 
330.445 
326.875 
352.184 
332.048 
338.159 
314.838 
355.098 
316.522 
328.069 
327.756 
354.836 
350.63 
303.554 
359.333 
307.429 
368.938 
340.25 
354.531 
368.098 
348.763 
344.787 
375.656 
365.757 
325.454 
329.766 
357.64 
350.19 
339.498 
352.452 
339.363 
362.943 
332.846 
347.94 
339.767 
363.451 
338.884 
352.763 
330.515 
331.567 
350.57 
339.522 
322.241 
306.363 
356.61 
363.529 
332.768 
378.483 
370.257 
343.677 
332.156 
355.683 
341.788 
354.375 
342.77 
308.346 
334.66 
316.025 
348.687 
312.391 
346.327 
349.4 
341.632 
335.402 
352.525 
349.413 
337.595 
306.137 
336.624 
340.037 
310.559 
317.269 
369.414 
363.917 
351.489 
352.73 
381.785 
399.389 
366.739 
377.747 
346.252 
315.449 
390.859 
300.915 
382.373 
357.419 
337.553 
327.293 
337.269 
393.391 
376.866 
343.987 
351.397 
394.051 
399.424 
363.017 
351.022 
365.6 
384.172 
391.794 
440.569 
381.866 
341.069 
374.271 
410.217 
359.402 
383.397 
353.599 
359.843 
364.902 
345.052 
403.757 
366.567 
336.741 
344.707 
382.819 
383.852 
383.31 
328.447 
366.794 
370.849 
384.023 
361.821 
343.519 
343.227 
366.889 
344.786 
349.392 
325.21 
372.498 
375.426 
322.933 
354.195 
312.227 
312.63 
351.196 
367.766 
346.729 
333.73 
317.924 
361.88 
343.95 
356.981 
430.052 
374.758 
363.992 
405.109 
368.199 
376.17 
325.181 
347.504 
387.766 
389.883 
341.647 
370.878 
359.809 
358.515 
377.479 
351.862 
335.428 
351.378 
368.966 
413.656 
321.836 
326.76 
384.908 
371.19 
381.88 
374.701 
341.911 
370.963 
326.983 
371.94 
345.649 
353.742 
370.957 
350.555 
378.729 
345.127 
347.125 
387.088 
350.064 
366.201 
359.952 
408.654 
363.003 
345.384 
348.136 
393.605 
320.801 
378.165 
315.782 
349.155 
387.39 
330.8 
371.776 
321.774 
387.049 
373.442 
347.882 
400.117 
387.502 
379.657 
359.051 
363.115 
393.9 
380.057 
384.358 
358.916 
377.118 
397.418 
336.601 
361.975 
332.688 
384.796 
358.735 
368.983 
355.211 
371.486 
386.554 
398.077 
376.268 
361.842 
353.771 
399.832 
308.233 
358.571 
367.329 
400.66 
356.736 
376.6 
380.305 
396.065 
400.838 
388.791 
375.321 
350.363 
418.05 
375.573 
414.667 
393.893 
444.053 
343.218 
382.083 
415.69 
395.567 
377.594 
389.977 
389.986 
321.846 
368.705 
414.554 
428.365 
360.145 
401.94 
390.413 
350.626 
389.831 
396.653 
374.035 
390.686 
405.278 
405.911 
362.776 
405.415 
405.492 
419.841 
394.132 
405.376 
345.391 
368.421 
416.014 
417.706 
414.872 
450.488 
367.638 
445.693 
421.334 
407.738 
450.156 
372.402 
424.122 
401.063 
436.908 
381.489 
423.997 
362.4 
390.441 
403.851 
424.15 
430.712 
416.649 
448.475 
452.53 
394.966 
426.549 
392.031 
429.927 
379.515 
430.279 
438.465 
429.547 
408.674 
461.532 
468.258 
407.924 
461.61 
456.292 
410.021 
375.223 
419.164 
428.818 
412.995 
417.541 
452.703 
422.899 
386.382 
360.845 
418.583 
427.658 
431.226 
429.408 
439.975 
402.677 
415.426 
396.888 
436.045 
392.213 
409.137 
355.028 
378.852 
387.378 
411.762 
395.671 
366.1 
368.671 
368.522 
460.843 
406.593 
394.445 
417.767 
389.589 
481.572 
425.907 
409.388 
381.114 
435.441 
445.927 
446.028 
421.025 
397.934 
381.396 
419.545 
382.88 
385.233 
404.507 
404.332 
390.857 
432.047 
393.565 
410.338 
417.056 
351.04 
428.056 
392.663 
378.073 
394.919 
441.501 
424.65 
383.854 
408.724 
410.67 
389.644 
407.105 
429.101 
405.375 
379.596 
358.612 
451.69 
366.978 
374.509 
441.092 
473.55 
426.734 
421.226 
460.074 
391.226 
430.545 
420.568 
462.64 
444.382 
462.098 
364.139 
462.534 
500.779 
404.619 
431.174 
428.189 
486.562 
434.851 
408.106 
478.057 
497.777 
480.754 
427.857 
440.48 
450.895 
413.774 
447.314 
451.385 
443.354 
441.433 
464.426 
448.26 
406.1 
392.979 
391.384 
452.152 
405.058 
405.388 
426.715 
447.996 
441.566 
446.635 
412.355 
436.412 
424.942 
477.68 
450.185 
400.706 
428.724 
465.367 
466.88 
401.637 
404.158 
433.647 
445.251 
443.798 
404.332 
473.602 
404.962 
441.06 
407.316 
410.834 
403.369 
448.903 
456.56 
496.769 
423.902 
413.107 
435.437 
397.425 
472.543 
413.3 
438.9 
433.367 
400.101 
485.444 
414.363 
411.665 
400.74 
378.015 
375.077 
375.468 
417.257 
379.055 
395.426 
435.784 
392.583 
410.136 
413.048 
424.602 
433.791 
403.15 
422.153 
417.149 
462.563 
372.039 
454.195 
437.009 
479.64 
430.36 
380.542 
477.174 
433.296 
458.317 
502.534 
424.709 
445.537 
412.332 
503.684 
482.095 
472.133 
462.876 
501.54 
507.53 
480.373 
476.672 
394.172 
497.662 
472.771 
425.11 
456.319 
490.676 
418.087 
455.855 
480.016 
504.293 
467.83 
425.514 
455.044 
425.297 
468.744 
432.121 
425.78 
400.585 
482.006 
427.314 
438.848 
461.035 
460.676 
441.899 
454.595 
426.971 
430.712 
458.212 
424.651 
412.912 
434.323 
411.273 
429.349 
391.839 
469.491 
419.391 
459.29 
436.909 
399.99 
457.892 
435.807 
489.599 
394.613 
471.884 
480.246 
394.584 
438.902 
447.596 
450.382 
549.721 
436.415 
455.182 
427.274 
465.859 
470.537 
501.117 
427.663 
460.445 
481.305 
463.03 
489.607 
435.569 
510.568 
452.737 
432.789 
527.008 
421.289 
451.809 
448.579 
488.394 
400.603 
424.831 
495.428 
468.381 
469.105 
420.642 
448.161 
462.25 
438.386 
484.257 
472.396 
457.528 
451.894 
536.38 
440.227 
421.731 
443.081 
466.033 
532.235 
394.816 
437.339 
421.376 
483.927 
432.315 
452.054 
533.298 
462.591 
488.594 
410.026 
460.239 
422.809 
454.829 
439.348 
460.611 
460.548 
435.631 
472.933 
410.878 
370.795 
485.328 
464.389 
496.138 
489.051 
511.359 
490.937 
464.293 
428.991 
440.163 
427.046 
427.962 
416.242 
479.766 
426.415 
419.488 
451.606 
386.722 
499.814 
437.222 
456.569 
416.356 
444.321 
442.078 
533.217 
435.442 
522.469 
450.722 
478.869 
431.118 
481.588 
522.461 
447.275 
469.414 
461.603 
430.442 
481.432 
469.138 
521.405 
428.818 
457.348 
488.411 
479.378 
518.243 
487.86 
519.151 
435.725 
400.367 
462.935 
441.732 
446.097 
460.491 
473.501 
467.566 
496.49 
515.019 
486.27 
527.108 
473.966 
496.973 
435.28 
507.398 
513.874 
496.418 
478.815 
479.692 
497.228 
415.396 
483.514 
478.656 
501.735 
503.345 
523.436 
465.013 
454.838 
497.941 
574.716 
489.994 
497.916 
485.894 
514.06 
427.022 
504.557 
423.107 
506.402 
453.535 
478.698 
422.194 
456.097 
471.823 
458.161 
394.473 
420.775 
463.165 
429.102 
471.868 
441.695 
493.268 
446.444 
519.421 
440.15 
446.569 
475.146 
443.724 
461.829 
491.135 
489.487 
508.326 
487.151 
526.459 
515.003 
503.097 
463.338 
453.19 
436.62 
450.83 
501 
448.74 
498.583 
531.171 
516.717 
476.417 
528.293 
438.008 
453.397 
488.191 
451.561 
513.236 
407.199 
428.958 
505.179 
486.397 
498.176 
508.45 
546.127 
578.111 
508.697 
535.24 
568.725 
474.193 
613.797 
474.24 
476.217 
516.268 
534.743 
466.251 
482.517 
527.139 
489.764 
476.524 
439.92 
519.317 
437.33 
464.09 
458.466 
469.76 
467.663 
504.107 
476.49 
468.871 
469.254 
432.655 
456.019 
481.859 
478.736 
471.187 
578.802 
501.029 
512.087 
466.07 
543.095 
551.84 
475.556 
517.393 
469.396 
501.193 
429.391 
529.09 
529.666 
488.656 
496.716 
502.947 
485.398 
474.51 
527.417 
478.713 
507.859 
465.404 
542.312 
530.57 
483.811 
492.305 
502.31 
506.336 
500.314 
500.342 
519.442 
453.667 
455.302 
474.986 
518.736 
529.964 
480.274 
479.235 
480.287 
516.054 
469.976 
493.086 
522.278 
454.869 
439.403 
451.211 
434.95 
493.957 
487.506 
496.232 
515.28 
487.608 
499.289 
557.086 
655.827 
573.645 
469.268 
446.36 
456.042 
580.106 
495.125 
408.618 
545.927 
582.355 
483.246 
445.932 
517.334 
561.019 
494.211 
543.278 
480.946 
551.932 
582.783 
475.967 
433.465 
506.017 
531.947 
494.949 
506.619 
500.581 
507.276 
451.145 
561.159 
535.619 
577.438 
493.172 
513.379 
480.667 
560.872 
475.231 
434.611 
515.38 
496.887 
448.692 
530.036 
490.584 
468.564 
