ITEM: TIMESTEP
100000
ITEM: NUMBER OF CELLS
1000
ITEM: BOX BOUNDS ss rr pp
0 0.004
0 0.01
-0.5 0.5
ITEM: CELLS f_temp1[*] 
273.938 
321.196 
346.601 
352.061 
295.661 
304.552 
320.645 
307.394 
314.166 
276.817 
286.312 
303.4 
332.22 
294.344 
284.337 
269.128 
299.584 
290.216 
298.483 
282.873 
306.826 
315.37 
271.335 
297.746 
308.499 
308.902 
275.2 
307.254 
273.931 
305.187 
291.816 
324.819 
300.147 
297.268 
274.289 
271.565 
312.826 
275.337 
326.722 
324.194 
274.795 
295.57 
290.563 
297.792 
310.988 
305.785 
296.558 
265.359 
277.773 
295.004 
318.749 
257.546 
269.845 
314.339 
323.174 
308.066 
324.763 
307.219 
332.505 
335.599 
311.303 
341.27 
309.783 
320.601 
301.773 
301.767 
330.851 
310.453 
284.47 
300.119 
274.618 
328.753 
328.152 
300.312 
361.303 
316.849 
318.634 
304.321 
300.614 
342.136 
334.678 
334.437 
295.023 
314.977 
336.327 
281.775 
349.714 
287.659 
366.74 
302.314 
266.881 
331.539 
287.197 
284.564 
282.145 
298.354 
320.021 
278.496 
288.494 
320.793 
316.128 
277.668 
334.459 
312.553 
293.893 
308.529 
306.424 
299.994 
351.022 
319.273 
292.415 
292.865 
291.135 
302.009 
282.526 
285.43 
285.691 
284.37 
327.347 
282.693 
311.848 
312.846 
268.388 
323.649 
312.514 
291.045 
273.22 
289.744 
299.26 
305.161 
356.532 
273.367 
343.364 
304.51 
264.673 
287.054 
298.81 
298.358 
323.778 
281.036 
300.662 
319.389 
262.849 
308.581 
264.438 
308.541 
335.488 
276.776 
289.561 
301.643 
313.746 
314.386 
315.325 
313.91 
286.332 
293.848 
266.987 
279.513 
298.664 
304.848 
322.261 
288.536 
309.025 
291.779 
281.706 
320.006 
287.118 
305.386 
307.409 
310.121 
310.852 
280.899 
331.725 
322.057 
300.209 
327.054 
320.209 
302.84 
310.848 
325.649 
357.528 
294.958 
303.84 
280.554 
318.61 
319.57 
335.894 
297.387 
296.488 
314.096 
281.645 
309.55 
288.497 
259.159 
333.147 
308.685 
299.197 
270.445 
299.117 
274.384 
243.429 
279.982 
291.276 
300.316 
291.97 
308.338 
333.422 
304.727 
285.505 
330.504 
337.441 
319.342 
297.324 
320.013 
297.486 
316.097 
292.666 
298.349 
303.01 
307.879 
284.407 
290.649 
280.494 
301.984 
294.62 
310.623 
286.964 
319.329 
273.627 
286.393 
294.199 
315.927 
318.185 
300.47 
304.443 
289.45 
313.992 
285.91 
298.471 
296.347 
291.312 
335.859 
312.531 
311.852 
300.893 
291.31 
311.051 
309.142 
301.875 
306.816 
319.672 
293.769 
285.438 
351.495 
280.141 
302.42 
345.434 
328.884 
282.347 
320.531 
305.965 
295.726 
361.29 
333.301 
309.882 
356.865 
285.245 
312.066 
296.592 
326.842 
299.049 
327.101 
336.997 
316.276 
340.262 
301.571 
323.879 
315.184 
299.115 
327.054 
319.487 
336.994 
300.174 
312.518 
303.233 
317.175 
305.231 
323.381 
339.33 
346.59 
305.449 
293.95 
309.612 
335.271 
302.031 
309.853 
245.991 
277.907 
291.836 
290.884 
287.624 
285.822 
300.529 
285.716 
336.702 
303.968 
284.057 
307.636 
299.068 
316.362 
309.013 
282.516 
314.758 
281.741 
248.644 
306.756 
296.963 
319.222 
304.342 
306.899 
287.755 
277.024 
300.368 
305.717 
333.182 
314.244 
320.804 
293.121 
339.504 
342.309 
339.389 
308.437 
331.865 
342.18 
348.272 
312.583 
326.506 
282.351 
322.67 
322.198 
307.987 
332.13 
330.667 
288.712 
336.123 
306.034 
337.006 
291.317 
331.772 
279.127 
333 
283.034 
337.382 
302.65 
287.762 
361.205 
340.467 
335.833 
352.067 
309.01 
334.13 
331.009 
303.047 
280.193 
342.903 
303.25 
304.118 
302.536 
332.343 
329.592 
260.75 
313.492 
349.274 
320.267 
320.072 
331.653 
316.74 
323.319 
303.484 
298.162 
299.127 
302.677 
342.632 
326.889 
295.701 
311.166 
324.027 
333.994 
308.782 
343.301 
335.213 
303.32 
290.649 
319.119 
307.764 
356.911 
295.924 
307.341 
335.233 
316.205 
322.31 
324.055 
308.156 
331.133 
299.282 
327.842 
305.587 
302.766 
279.943 
301.118 
309.117 
312.214 
310.082 
303.651 
307.035 
298.575 
332.171 
330.313 
320.093 
381.174 
291.277 
343.48 
355.734 
332.454 
343.892 
331.422 
363.281 
339.506 
332.126 
333.911 
339.715 
327.312 
360.232 
330.895 
286.376 
309.516 
336.44 
290.426 
342.633 
334.132 
347.994 
331.623 
324.927 
329.144 
321.719 
344.75 
311.811 
347.217 
296.103 
347.328 
356.714 
332.298 
336.825 
350.761 
293.156 
297.082 
324.838 
282.187 
320.907 
315.827 
337.566 
306.936 
328.203 
329.798 
302.121 
275.241 
319.796 
289.462 
312.642 
312.216 
325.618 
333.464 
295.112 
347.821 
300.32 
340.88 
325.135 
290.54 
336.539 
328.88 
320.073 
315.411 
338.188 
303.141 
330.928 
296.112 
313.188 
304.428 
345.264 
337.88 
296.469 
316.712 
352.984 
301.743 
329.633 
317.03 
340.29 
323.661 
299.161 
303.412 
311.447 
333.535 
320.379 
345.208 
343.069 
334.774 
326.131 
331.556 
310.158 
343.698 
327.439 
313.507 
326.37 
297.668 
303.427 
315.489 
308.791 
305.078 
341.701 
323.176 
372.478 
305.017 
313.356 
334.969 
363.833 
341.62 
342.681 
311.24 
305.817 
316.578 
290.34 
369.426 
298.852 
299.796 
353.475 
297.776 
292.83 
322.798 
308.432 
257.306 
315.216 
343.223 
299.02 
309.232 
308.072 
304.331 
287.686 
295.508 
342.359 
306.047 
354.998 
290.033 
301.531 
331.852 
329.037 
317.146 
303.854 
284.814 
345.15 
354.031 
245.226 
282.315 
328.212 
337.501 
328.147 
334.542 
304.8 
303.124 
318.736 
332.219 
255.295 
332.847 
310.708 
318.209 
341.786 
336.223 
314.91 
352.189 
280.154 
371.865 
299.618 
333.597 
290.743 
293.754 
348.146 
323.446 
325.184 
292.064 
337.504 
349.575 
295.683 
350.769 
339.819 
321.838 
290.38 
318.234 
305.341 
289.669 
321.594 
350.576 
311.413 
349.244 
356.99 
297.669 
325.891 
332.507 
313.533 
337.248 
297.71 
329.33 
324.566 
310.559 
343.233 
317.73 
330.291 
346.408 
305.43 
303.038 
366.002 
320.288 
316.981 
337.227 
339.602 
317.833 
355.899 
370.262 
308.81 
298.393 
326.808 
302.23 
346.573 
336.216 
306.025 
348.743 
327.03 
335.325 
359.761 
282.98 
304.58 
334.511 
355.193 
368.109 
315.349 
313.528 
297.85 
330.702 
335.997 
329.023 
359.831 
332.208 
340.882 
361.668 
353.665 
363.158 
341.139 
324.78 
309.239 
346.055 
329.082 
358.979 
285.085 
336.355 
343.53 
320.338 
369.02 
339.168 
325.806 
338.567 
331.362 
347.137 
308.726 
332.934 
327.528 
341.01 
297.178 
372.353 
338.762 
347.654 
389.565 
337.466 
323.254 
376.503 
331.059 
397.182 
262.336 
313.542 
347.807 
364.547 
363.527 
395.552 
407.798 
359.131 
405.299 
356.091 
351.838 
365.688 
371.049 
388.032 
380.999 
301.993 
376.115 
388.513 
333.559 
364.08 
346.593 
403.262 
334.537 
315.379 
386.254 
326.538 
360.893 
343.099 
322.276 
354.621 
337.039 
346.778 
369.568 
373.876 
376.778 
404.21 
366.511 
368.655 
367.468 
306.768 
385.839 
411.718 
367.705 
355.226 
350.754 
354.371 
375.047 
329.403 
342.319 
319.401 
356.977 
339.353 
342.164 
392.176 
433.685 
325.893 
378.098 
330.043 
382.729 
347.309 
340.557 
391.553 
337.052 
306.397 
345.498 
402.442 
399.34 
378.514 
369.489 
386.863 
352.797 
344.306 
374.036 
359.66 
368.276 
382.032 
393.711 
394.676 
359.32 
331.28 
423.917 
426.576 
364.276 
320.669 
357.659 
358.622 
323.926 
341.504 
350.247 
343.467 
330.665 
342.707 
395.839 
337.95 
356.061 
337.752 
368.461 
394.087 
342.698 
365.436 
360.413 
370.655 
345.516 
336.5 
370.768 
320.168 
367.359 
354.723 
351.483 
378.951 
416.71 
377.088 
410.413 
347.261 
380.265 
363.179 
419.373 
434.206 
418.048 
422.371 
373.331 
374.773 
363.287 
447.559 
383.226 
416.57 
406.917 
419.646 
449.169 
440.744 
349.039 
433.547 
386.582 
411.814 
435.346 
377.389 
505.545 
359.133 
383.958 
367.375 
429.201 
430.21 
454.541 
422.603 
424.234 
392.241 
399.077 
427.781 
443.732 
385.246 
407.614 
443.125 
425.2 
426.266 
428.017 
467.855 
416.518 
384.112 
428.878 
435.3 
358.108 
388 
438.06 
422.738 
410.092 
399.577 
442.415 
374.606 
428.328 
424.746 
407.244 
428.481 
489.061 
431.87 
427.774 
376.543 
427.484 
474.963 
438.225 
419.987 
424.622 
468.028 
402.043 
451.236 
417.294 
415.115 
417.455 
424.177 
413.023 
383.248 
439.405 
357.216 
435.357 
433.599 
395.221 
473.875 
406.518 
463.783 
398.322 
426.155 
390.876 
357.855 
362.972 
451.706 
365.699 
372.317 
475.621 
445.729 
443.28 
461.167 
431.044 
448.659 
467.918 
435.57 
469.691 
459.395 
463.288 
480.614 
420.713 
484.643 
456.454 
458.254 
465.148 
478.241 
415.446 
416.781 
462.272 
423.47 
440.23 
462.726 
376.73 
445.083 
433.183 
535.346 
479.762 
431.517 
560.962 
474.78 
414.513 
418.331 
464.594 
492.59 
473.539 
479.954 
448.902 
545.091 
459.066 
502.481 
454.077 
437.948 
444.367 
488.644 
474.677 
496.859 
457.743 
512.655 
483.838 
487.08 
469.088 
490.292 
486.883 
527.473 
436.954 
424.343 
477.58 
426.481 
509.227 
440.443 
451.596 
490.333 
525.571 
487.665 
490.182 
598.496 
511.81 
553.617 
441.678 
572.421 
476.273 
504.515 
485.909 
471.558 
397.662 
447.814 
444.013 
447.151 
426.238 
512.117 
511.776 
446.554 
471.052 
425.593 
418.277 
520.674 
424.666 
496.506 
577.274 
625.215 
574.966 
529.75 
539.425 
527.853 
486.919 
426.663 
517.642 
411.888 
469.796 
553.56 
517.507 
470.046 
417.563 
523.847 
446.877 
436.356 
516.319 
520.26 
