ITEM: TIMESTEP
8400000
ITEM: NUMBER OF CELLS
1000
ITEM: BOX BOUNDS ss rr pp
0 0.004
0 0.01
-0.5 0.5
ITEM: CELLS f_temp1[*] 
306.017 
265.173 
316.443 
321.943 
320.589 
309.787 
354.777 
327.674 
318.617 
335.389 
338.749 
314.885 
312.245 
375.012 
299.735 
310.277 
322.106 
314.427 
319.031 
305.562 
278.85 
308.291 
303.881 
320.496 
299.366 
305.781 
340.329 
303.383 
309.837 
317.619 
310.624 
291.054 
337.577 
313.517 
338.012 
324.742 
326.981 
310.549 
307.499 
310.369 
293.814 
303.782 
295.64 
312.076 
298.46 
300.303 
307.366 
292.725 
284.62 
308.614 
333.99 
334.056 
362.01 
337.394 
319.938 
329.718 
334.239 
320.734 
347.382 
342.073 
310.95 
314.477 
354.789 
374.229 
318.85 
340.168 
338.48 
347.765 
331.122 
338.429 
336.808 
325.4 
326.733 
308.879 
302.578 
318.42 
314.616 
333.623 
283.118 
324.33 
350.703 
284.585 
304.35 
312.308 
333.401 
298.748 
295.119 
300.38 
313.432 
308.273 
313.97 
290.005 
292.405 
314.303 
315.09 
349.244 
353.771 
330.727 
351.835 
339.847 
330.491 
338.976 
331.742 
340.591 
356.215 
343.012 
285.538 
275.86 
378.64 
351.238 
385.1 
342.981 
314.806 
336.489 
334.388 
373.982 
302.81 
341.862 
366.233 
360.373 
362.552 
327.764 
369.853 
313.193 
361.754 
321.526 
310.822 
300.341 
313.718 
342.594 
347.043 
326.44 
294.343 
341.026 
339.749 
308.181 
370.541 
324.336 
327.877 
331.682 
346.213 
310.894 
327.473 
329.242 
305.89 
332.381 
363.026 
361.998 
380.313 
305.793 
393.571 
354.774 
342.312 
343.772 
349.957 
352.991 
366.115 
320.473 
295.029 
326.587 
343.676 
324.249 
356.534 
343.57 
388.242 
331.507 
372.309 
360.526 
326.177 
381.494 
404.311 
358.374 
320.088 
346.602 
357.918 
347.075 
356.477 
335.17 
380.404 
353.306 
346.215 
380.954 
300.398 
362.512 
335.098 
338.383 
364.231 
348.153 
360.206 
317.853 
296.819 
354.001 
308.948 
307.452 
301.737 
331.713 
318.79 
314.761 
310.751 
347.924 
317.168 
311.571 
314.952 
306.262 
390.495 
384.514 
317.54 
372.076 
383.981 
354.515 
393.731 
328.803 
306.265 
339.677 
331.775 
321.895 
355.504 
375.238 
356.371 
353.161 
404.557 
433.306 
352.48 
333.121 
384.859 
377.358 
353.344 
399.095 
351.464 
369.919 
380.307 
335.626 
375.448 
363.632 
404.83 
357.246 
369.661 
370.139 
388.206 
379.646 
352.948 
357.44 
332.731 
362.472 
408.058 
349.001 
317.814 
350.039 
382.33 
404.212 
408.893 
377.818 
355.33 
345.327 
353.608 
373.31 
352.146 
354.019 
362.586 
374.412 
405.126 
402.868 
438.003 
374.297 
384.612 
394.844 
391.567 
371.772 
341.239 
366.904 
365.06 
414.944 
324.818 
363.359 
352.505 
392.209 
385.605 
376.528 
352.912 
368.938 
350.206 
382.157 
396.496 
405.384 
384.538 
403.106 
411.877 
409.671 
370.399 
342.076 
383.029 
366.542 
370.676 
353.813 
338.998 
372.175 
363.268 
349.636 
335.817 
358.519 
374.087 
359.657 
362.602 
333.857 
363.845 
371.326 
372.947 
339.132 
407.033 
387.058 
408.377 
349.954 
407.716 
366.935 
356.466 
392.683 
350.159 
383.674 
426.834 
362.803 
341.978 
374.895 
349.974 
433.194 
366.561 
378.983 
387.197 
384.142 
364.135 
378.887 
358.284 
385.301 
359.034 
329.205 
382.91 
352.914 
411.706 
408.39 
380.513 
366.195 
461.082 
374.17 
393.534 
343.495 
409.721 
407.31 
316.842 
373.384 
396.999 
397.838 
384.836 
374.528 
391.309 
393.954 
403.67 
316.651 
357.761 
379.248 
376.491 
407.601 
369.605 
382.097 
385.357 
372.849 
411.865 
401.133 
351.004 
388.437 
430.931 
385.435 
395.72 
365.126 
416.459 
365.502 
389.679 
406.864 
354.262 
397.48 
410.984 
448.026 
410.466 
411.322 
369.294 
372.875 
400.644 
385.058 
379.656 
402.139 
405.828 
366.172 
354.113 
424.07 
367.583 
449.458 
399.814 
366.428 
401.252 
390.427 
407.278 
428.378 
458.653 
378.223 
379.199 
369.687 
391.948 
341.999 
408.254 
389.678 
353.743 
367.492 
365.763 
412.915 
405.834 
427.954 
420.821 
335.533 
371.59 
363.491 
413.686 
412.93 
379.446 
438.271 
408.673 
400.309 
384.124 
398.742 
404.588 
406.509 
352.2 
407.121 
397.584 
439.767 
434.898 
337.179 
377.203 
391.35 
393.377 
419.199 
405.482 
398.181 
374.585 
362.658 
392.673 
350.517 
369.514 
375.23 
391.83 
424.508 
390.241 
360.13 
381.357 
386.29 
401.157 
451.867 
396.181 
383.844 
395.657 
401.387 
385.273 
378.105 
409.664 
365.997 
412.965 
374.995 
423.848 
409.916 
441.831 
350.331 
413.108 
405.139 
360.665 
390.021 
467.484 
381.142 
405.138 
436.345 
365.972 
403.599 
414.285 
408.311 
403.067 
418.889 
406.94 
389.899 
412.276 
429.175 
429.806 
437.295 
421.56 
473.338 
423.328 
391.819 
427.969 
395.769 
388.072 
410.987 
374.407 
406.946 
398.179 
435.415 
427.932 
429.452 
411.27 
416.886 
402.722 
379.508 
402.692 
442.473 
462.291 
409.787 
413.492 
426.603 
399.303 
428.309 
372.284 
399.054 
391.475 
411.738 
445.115 
406.941 
429.514 
452.847 
426.488 
438.576 
451.846 
374.373 
419.647 
462.91 
415.826 
382.408 
468.339 
437.634 
406.131 
435.647 
421.252 
460.896 
384.119 
425.511 
362.967 
433.957 
443.308 
400.545 
397.413 
427.617 
403.614 
431.802 
450.19 
455.288 
446.975 
425.9 
400.75 
405.438 
400.185 
437.197 
404.135 
466.363 
442.507 
471.534 
431.305 
470.186 
454.577 
407.513 
474.4 
375.577 
473.246 
454.628 
466.899 
451.526 
447.494 
452.048 
409.349 
405.842 
436.087 
392.711 
383.881 
420.617 
441.441 
452.637 
403.629 
442.422 
424.469 
441.17 
433.875 
436.16 
421.755 
422.901 
435.166 
397.533 
484.658 
434.191 
417.477 
426.235 
426.016 
449.959 
405.8 
426.902 
438.653 
440.702 
363.195 
418.903 
420.727 
445.056 
367.318 
423.414 
387.969 
407.534 
429.648 
391.369 
431.094 
441.542 
398.567 
459.109 
415.227 
366.452 
441.908 
406.953 
463.905 
455.699 
421.015 
446.819 
459.765 
459.826 
468.422 
401.771 
436.266 
434.703 
448.993 
464.546 
503.118 
403.651 
439.829 
430.067 
423.928 
365.08 
494.395 
454.815 
416.329 
449.603 
492.673 
411.902 
405.053 
409.661 
424.286 
448.974 
442.788 
431.446 
453.022 
467.493 
450.296 
415.195 
402.497 
470.036 
474.047 
453.149 
424.061 
473.015 
413.602 
444.822 
423.189 
477.826 
473.18 
455.936 
415.82 
427.798 
476.995 
438.583 
438.81 
434.881 
487.107 
421.728 
427.302 
460.413 
490.559 
431.92 
394.216 
478.238 
431.081 
389.777 
442.548 
427.157 
404.955 
413.997 
503.628 
408.29 
413.953 
439.46 
442.824 
407.669 
470.802 
448.739 
456.121 
425.778 
434.267 
415.609 
420.974 
445.115 
440.126 
418.114 
466.552 
427.147 
489.438 
403.336 
438.683 
412.146 
472.012 
421.35 
443.649 
480.267 
471.818 
562.177 
477.123 
443.928 
389.333 
478.79 
483.338 
452.649 
456.534 
519.8 
442.47 
427.003 
507.507 
416.135 
466.18 
434.16 
429.63 
492.273 
495.31 
452.636 
505.724 
493.495 
482.298 
461.79 
455.531 
494.724 
446.049 
509.49 
491.368 
440.782 
425.227 
475.037 
448.671 
429.584 
477.864 
442.47 
442.673 
452.723 
499.834 
469.614 
484.534 
474.937 
537.663 
538.988 
484.632 
496.406 
485.829 
470.855 
473.544 
478.696 
471.665 
440.914 
518.35 
485.385 
476.489 
419.976 
457.102 
446.145 
442.91 
429.909 
502.351 
442.469 
487.778 
404.586 
484.765 
427.446 
437.213 
470.3 
473.255 
454.377 
434.626 
505.253 
460.157 
460.241 
415.96 
477.648 
461.362 
476.429 
493.078 
485.591 
488.646 
462.803 
482.913 
464.468 
427.614 
456.235 
472.026 
500.91 
479.49 
506.715 
516.529 
524.783 
436.553 
513.848 
538.11 
440.15 
489.655 
544.56 
425.208 
440.58 
535.86 
518.626 
445.797 
507.734 
486.958 
527.316 
499.656 
484.517 
469.985 
445.61 
451.768 
456.212 
458.828 
486.927 
402.239 
493.325 
446.332 
422.279 
513.882 
522.279 
479.022 
498.666 
443.77 
479.144 
451.821 
495.949 
470.482 
460.095 
479.082 
510.791 
509.149 
479.44 
542.779 
491.201 
523.662 
491.319 
463.349 
495.735 
535.162 
473.812 
550.917 
617.721 
541.339 
497.733 
444.491 
509.17 
546.441 
526.5 
496.778 
468.521 
501.098 
481.046 
572.905 
498.119 
518.365 
555.896 
499.519 
578.244 
461.677 
474.959 
538.01 
480.293 
553.342 
489.029 
490.498 
490.608 
483.208 
479.46 
510.56 
456.832 
438.256 
480.868 
470.538 
449.577 
488.704 
537.602 
507.799 
527.585 
492.689 
488.402 
475.531 
467.742 
471.828 
471.613 
477.853 
478.698 
393.194 
543.168 
442.793 
506.106 
492.742 
557.603 
449.356 
498.465 
480.643 
530.656 
495.195 
482.858 
520.831 
483.814 
456.259 
548.199 
474.607 
449.251 
576.851 
580.006 
499.366 
604.097 
488.806 
592.455 
528.119 
502.347 
533.505 
611.89 
542.508 
499.648 
524.886 
530.735 
595.176 
512.694 
537.494 
484.095 
486.383 
546.423 
423.973 
608.793 
558.717 
540.561 
527.051 
470.585 
531.361 
470.237 
461.863 
522.954 
519.27 
524.154 
493.809 
500.413 
496.816 
551.283 
455.183 
481.545 
522.337 
522.431 
576.324 
528.143 
564.302 
563.422 
485.541 
453.144 
410.199 
531.15 
512.657 
504.266 
495.1 
475.702 
532.811 
502.058 
431.879 
524.818 
450.043 
548.003 
517.164 
466.755 
490.811 
505.331 
496.255 
452.327 
516.752 
414.857 
475.963 
502.462 
527.846 
433.406 
439.778 
556.775 
433.202 
484.362 
479.398 
505.69 
517.348 
493.708 
444.363 
454.564 
524.811 
503.806 
487.924 
442.346 
476.157 
504.061 
525.399 
430.574 
