ITEM: TIMESTEP
9500000
ITEM: NUMBER OF CELLS
1000
ITEM: BOX BOUNDS ss rr pp
0 0.004
0 0.01
-0.5 0.5
ITEM: CELLS f_temp1[*] 
312.679 
308.211 
294.357 
287.274 
284.163 
318.253 
276.711 
309.291 
301.396 
338.793 
291.535 
299.783 
301.368 
276.315 
276.865 
293.982 
303.855 
294.814 
304.632 
257.66 
322.97 
279.268 
303.894 
282.412 
250.907 
270.597 
291.668 
284.638 
258.207 
269.711 
289.415 
275.381 
310.464 
296.933 
260.695 
314.398 
284.671 
310.719 
292.457 
313.408 
302.837 
302.383 
314.736 
295.896 
291.841 
323.957 
329.731 
328.94 
306.883 
340.524 
299.152 
315.783 
295.151 
314.267 
329.375 
300.43 
306.061 
306.641 
323.04 
326.102 
310.956 
312.295 
301.174 
287.865 
309.48 
286.771 
347.934 
325.266 
324.434 
319.919 
299.394 
341.306 
361.56 
326.712 
336.948 
350.166 
316.784 
307.387 
327.851 
320.991 
310.412 
344.963 
301.496 
305.41 
278.781 
328.077 
315.605 
279.122 
296.319 
353.767 
327.468 
341.246 
276.672 
286.584 
327.089 
317.121 
374.183 
355.463 
330.57 
327.836 
306.536 
324.634 
342.925 
313.675 
318.764 
344.19 
303.885 
345.333 
317.331 
303.837 
293.784 
302.016 
383.839 
343.342 
359.547 
316.29 
324.237 
318.287 
325.779 
360.395 
329.174 
310.364 
352.654 
301.785 
346.386 
310.207 
305.8 
370.238 
320.71 
316.229 
367.421 
298.309 
324.796 
346.151 
355.954 
348.133 
320.716 
373.967 
331.694 
326.127 
354.557 
335.871 
350.934 
346.046 
359.19 
321.369 
347.294 
338.696 
386.658 
338.917 
340.477 
368.355 
325.161 
340.652 
319.879 
335.375 
313.18 
324.068 
333.573 
338.226 
344.987 
299.756 
370.554 
364.293 
351.22 
349.679 
343.601 
342.362 
360.818 
379.743 
344.611 
358.005 
299.112 
313.29 
363.035 
361.126 
332.431 
351.771 
330.369 
373.82 
314.941 
370.566 
340.212 
376.845 
360.444 
419.024 
341.157 
333.407 
338.105 
371.734 
348.478 
340.268 
335.557 
361.759 
407.027 
364.636 
353.095 
325.612 
359.423 
333.678 
343.864 
334.685 
361.085 
345.985 
334.445 
348.784 
341.736 
359.804 
354.387 
364.583 
306.281 
352.542 
368.535 
323.552 
326.545 
336.822 
353.43 
346.742 
364.207 
353.643 
321.132 
303.225 
370.851 
323.344 
328.501 
384.662 
375.019 
322.319 
390.346 
371.486 
345.805 
339.385 
343.71 
378.238 
362.379 
382.733 
365.546 
373.913 
364.651 
372.002 
351.352 
337.392 
388.76 
340.542 
326.641 
382.707 
374.867 
327.744 
350.619 
343.321 
329.701 
375.035 
330.35 
362.123 
387.712 
323.352 
338.58 
335.959 
367.995 
365.181 
340.119 
303.424 
348.865 
338.589 
325.126 
342.206 
378.848 
381.561 
362.484 
320.932 
354.445 
322.258 
372.145 
341.515 
321.308 
326.602 
312.829 
330.654 
314.597 
341.237 
357.086 
320.095 
352.61 
341.872 
358.139 
341.222 
348.388 
342.593 
349.13 
406.977 
353.855 
324.846 
363.699 
356.826 
344.267 
351.112 
411.06 
370.443 
338.143 
353.339 
352.813 
320.876 
350.933 
358.672 
359.859 
395.142 
396.666 
377.999 
348.833 
373.221 
379.559 
406.48 
386.834 
380.83 
425.558 
373.208 
360.301 
376.106 
351.735 
330.331 
385.522 
364.507 
367.039 
352.078 
364.56 
390.216 
368.476 
350.318 
361.785 
383.202 
380.963 
385.761 
363.949 
398.546 
374.453 
402.096 
394.102 
383.606 
411.848 
410.237 
414.872 
321.861 
351.025 
367.119 
383.047 
385.552 
384.079 
403.228 
380.091 
442.875 
336.92 
386.978 
422.436 
375.082 
428.188 
379.989 
363.557 
405.915 
459.44 
352.389 
334.84 
374.881 
410.834 
351.541 
348.405 
344.453 
374.542 
359.946 
340.536 
363.955 
391.469 
330.594 
356.085 
316.173 
340.995 
331.665 
354.228 
393.518 
339.162 
347.238 
362.686 
321.424 
359.766 
404.725 
324.856 
356.316 
319.926 
355.233 
356.308 
351.873 
356.044 
372.362 
374.608 
403.679 
408.236 
359.101 
370.276 
413.916 
370.921 
383.395 
359.26 
408.268 
349.262 
391.501 
400.086 
379.17 
382.514 
356.346 
369.081 
354.599 
361.313 
386.09 
418.755 
388.684 
367.975 
371.69 
385.299 
395.079 
374.173 
411.846 
402.551 
355.575 
402.39 
429.953 
417.681 
399.879 
444.715 
402.907 
382.323 
412.299 
363.214 
356.738 
397.496 
375.876 
426.916 
411.856 
393.323 
434.538 
421.408 
365.029 
417.606 
404.029 
442.341 
401.03 
378.513 
427.749 
390.721 
364.589 
377.977 
390.583 
402.125 
371.247 
446.995 
393.336 
394.214 
374.114 
354.303 
412.464 
412.207 
430.313 
445.475 
436.073 
375.603 
409.39 
403.262 
400.657 
394.571 
404.284 
405.22 
409.264 
454.231 
389.555 
435.331 
369.187 
442.617 
390.957 
338.547 
398.299 
440.824 
369.515 
437.503 
370.194 
409.57 
408.341 
426.793 
415.063 
408.398 
359.116 
455.013 
436.761 
417.285 
425.227 
398.433 
419.017 
443.211 
405.966 
398.708 
364.08 
384.282 
413.476 
444.395 
363.266 
396.113 
403.27 
374.611 
360.074 
399.285 
396.031 
385.292 
424.398 
445.072 
400.829 
410.206 
382.186 
430.277 
450.56 
383.564 
404.845 
438.652 
462.506 
437.15 
418.37 
413.272 
339.775 
441.222 
405.306 
418.775 
386.017 
410.248 
390.195 
418.681 
394.507 
360.515 
373.356 
373.641 
408.332 
346.525 
378.022 
342.763 
440.325 
411.189 
417.324 
390.829 
378.714 
410.254 
409.194 
389.899 
386.528 
404.453 
357.814 
401.433 
384.209 
361.88 
355.464 
389.578 
412.245 
368.106 
357.115 
405.161 
388.323 
350.174 
354.613 
416.795 
360.799 
431.46 
376.745 
416.502 
397.742 
394.366 
405.663 
442.02 
446.201 
422.564 
413.396 
500.819 
408.982 
425.405 
386 
443.441 
452.261 
458.173 
409.64 
444.783 
455.957 
419.184 
442.305 
402.362 
430.359 
391.661 
402.797 
472.872 
380.458 
439.94 
431.554 
352.026 
408.582 
428.162 
358.476 
438.649 
415.797 
399.549 
355.326 
434.898 
427.113 
402.67 
395.019 
481.792 
437.099 
450.169 
382.939 
398.114 
397.036 
406.01 
443.969 
397.666 
383.656 
432.888 
397.453 
362.336 
463.021 
439.476 
360.394 
411.487 
420.425 
416.661 
382.679 
415.593 
370.055 
450.556 
408.659 
415.575 
369.457 
389.182 
376.621 
378.083 
413.786 
413.31 
416.267 
393.373 
394.859 
432.081 
449.063 
421.501 
422.208 
417.347 
446.589 
429.172 
459.527 
426.161 
410.487 
456.695 
379.624 
435.489 
457.593 
415.969 
403.08 
442.434 
461.416 
465.093 
448.858 
469.032 
454.137 
491.603 
458.124 
451.601 
478.976 
568.613 
404.164 
479.722 
401.161 
488.959 
402.981 
398.234 
491.554 
467.334 
446.842 
426.453 
437.01 
470.072 
470.313 
451.008 
477.189 
462.272 
455.544 
453.602 
415.968 
486.774 
438.431 
528.763 
403.46 
425.786 
472.671 
463.385 
473.443 
501.58 
469.014 
449.655 
514.073 
491.708 
494.72 
462.07 
470.801 
460.883 
480.804 
441.354 
456.614 
475.597 
459.809 
473.768 
469.647 
478.466 
458.354 
507.517 
483.574 
502.133 
464.846 
425.823 
447.06 
452.914 
499.257 
454.33 
404.469 
497.006 
457.663 
433.704 
460.903 
403.3 
439.096 
481.076 
437.376 
456.425 
472.367 
407.582 
377.758 
461.592 
479.006 
456.438 
399.906 
459.524 
385.325 
420.66 
440.461 
475.784 
468.578 
472.729 
495.497 
480.232 
489.348 
457.034 
477.144 
475.713 
397.438 
472.906 
454.131 
511.816 
464.03 
449.017 
434.51 
474.833 
462.551 
463.635 
444.487 
379.132 
457.888 
475.64 
429.909 
469.127 
480.712 
399.085 
475.622 
452.619 
480.595 
399.428 
534.064 
465.01 
458.763 
497.818 
448.459 
390.995 
429.559 
473.063 
483.966 
458.313 
435.359 
432.912 
449.813 
449.617 
415.76 
420.588 
412.833 
467.64 
495.316 
414.156 
508.32 
450.094 
492.13 
473.981 
478.494 
588.76 
437.551 
462.469 
388.911 
464.381 
469.846 
460.402 
512.423 
466.21 
460.787 
444.455 
476.139 
482.189 
457.904 
452.959 
445.904 
453.618 
414.622 
480.5 
496.151 
564.259 
486.417 
482.514 
444.131 
441.588 
515.043 
415.253 
494.914 
472.319 
456.371 
501.816 
471.942 
472.226 
445.771 
519.701 
417.659 
482.116 
432.642 
465.706 
433.25 
492.272 
455.542 
500.588 
402.447 
422.49 
451.939 
436.194 
407.436 
415.447 
415.635 
454.959 
400.249 
459.106 
474.054 
468.319 
420.933 
481.514 
437.321 
410.587 
421.375 
414.056 
439.178 
456.743 
461.997 
461.402 
490.986 
517.202 
387.032 
450.124 
459.761 
490.331 
507.792 
516.529 
435.865 
523.581 
493.604 
464.14 
510.752 
500.474 
462.791 
536.889 
451.118 
458.679 
498.908 
478.96 
475.957 
496.067 
534.202 
448.236 
422.201 
460.325 
478.347 
448.074 
459.597 
424.843 
475.999 
434.098 
521.453 
514.145 
456.312 
479.87 
517 
484.361 
486.005 
506.067 
482.203 
468.975 
452.305 
486.711 
499.72 
515.397 
499.527 
493.791 
504.717 
619.637 
532.316 
476.878 
522.487 
480.884 
473.004 
534.652 
469.967 
426.484 
508.879 
428.033 
529.956 
440.798 
490.155 
518.015 
485.815 
496.376 
573.007 
517.363 
511.987 
553.048 
521.972 
428.595 
540.067 
504.337 
422.553 
449.812 
453.764 
512.407 
547.006 
523.084 
541.374 
453.104 
455.364 
422.303 
473.711 
467.719 
424.21 
448.374 
516.145 
549.861 
454.826 
470.016 
459.113 
536.873 
530.679 
443.626 
519.873 
533.132 
534.98 
546.245 
595.121 
480.949 
485.888 
512.621 
528.787 
542.443 
476.229 
439.048 
513.044 
490.39 
457.144 
489.882 
450.85 
512.444 
458.624 
571.997 
535.747 
534.906 
524.417 
530.324 
505.135 
520.323 
584.054 
564.03 
609.845 
555.592 
471.858 
450.058 
513.632 
501.627 
489.386 
462.978 
457.316 
564.762 
521.866 
464.936 
478.24 
