ITEM: TIMESTEP
6600000
ITEM: NUMBER OF CELLS
1000
ITEM: BOX BOUNDS ss rr pp
0 0.004
0 0.01
-0.5 0.5
ITEM: CELLS f_temp1[*] 
300.482 
292.277 
310.167 
303.566 
317.026 
308.871 
325.11 
307.351 
314.537 
343.053 
333.387 
283.856 
328.2 
321.78 
300.683 
299.166 
330.612 
269.689 
289.567 
303.234 
323.827 
273.039 
329.513 
335.895 
314.751 
294.349 
314.255 
260.159 
319.667 
281.246 
288.527 
276.901 
307.079 
293.968 
281.429 
258.665 
304.13 
277.492 
278.117 
308.164 
282.455 
304.14 
293.024 
277.437 
283.721 
320.797 
286.701 
294.61 
298.658 
297.55 
305.156 
295.687 
331.942 
311.371 
334.114 
321.27 
338.586 
325.565 
348.374 
324.758 
314.829 
315.577 
330.767 
309.188 
318.848 
323.997 
298.008 
325.754 
274.524 
299.911 
322.053 
330.212 
285.537 
314.931 
286.53 
297.477 
319.039 
282.836 
298.066 
310.591 
326.614 
318.084 
298.132 
299.523 
279.613 
320.708 
327.429 
309.468 
315.072 
305.111 
331.018 
298.387 
308.736 
299.348 
307.096 
353.428 
292.682 
320.104 
352.357 
376.752 
343.842 
322.489 
329.518 
336.85 
355.479 
316.108 
319.381 
358.837 
321.634 
327.303 
306.019 
320.103 
332.259 
337.941 
318.493 
318.707 
296.018 
298.528 
313.073 
309.684 
334.18 
313.197 
341.667 
300.909 
318.096 
313.366 
310.427 
365.584 
303.601 
354.198 
322.435 
324.243 
294.039 
313.575 
323.174 
322.38 
308.886 
326.101 
305.327 
287.151 
305.463 
321.278 
338.363 
354.019 
320.042 
331.402 
346.583 
337.58 
312.43 
303.308 
362.423 
333.224 
318.133 
283.712 
324.883 
317.079 
365.436 
345.209 
326.423 
356.91 
317.768 
328.797 
344.539 
352.873 
349.169 
380.823 
345.79 
323.592 
321.549 
372.171 
319.505 
328.15 
374.278 
293.116 
350.425 
342.656 
315.027 
333.651 
330.803 
333.119 
347.332 
331.585 
345.487 
335.094 
345.227 
297.884 
343.403 
311.916 
360.655 
363.83 
336.847 
348.394 
303.197 
357.625 
312.783 
336.266 
312.933 
290.869 
329.786 
330.931 
380.112 
316.358 
307.656 
367.767 
326.884 
356.953 
346.392 
351.345 
375.127 
351.809 
356.456 
332.012 
325.77 
288.996 
354.82 
345.841 
339.01 
349.467 
302.582 
325.658 
394.266 
307.44 
317.216 
343.906 
327.745 
323.177 
332.023 
357.383 
352.431 
363.942 
361.881 
365.401 
383.486 
409.871 
345.455 
366.562 
387.583 
346.626 
389.691 
340.914 
378.701 
337.039 
345.442 
383.235 
363.255 
368.394 
368.179 
355.061 
343.739 
316.715 
413.085 
355.091 
315.095 
359.392 
382.847 
378.39 
361.617 
359.704 
333.131 
333.464 
397.143 
370.426 
328.67 
318.775 
392.069 
344.599 
351.55 
327.624 
354.038 
318.396 
354.108 
355.017 
330.849 
352.137 
347.176 
371.03 
381.284 
362.323 
321.363 
312.53 
373.49 
378.894 
361.217 
366.807 
352.974 
378.629 
359.726 
359.038 
381.665 
341.97 
369.586 
353.789 
308.032 
345.892 
329.404 
356.026 
346.872 
327.745 
392.3 
377.908 
385.815 
395.743 
359.362 
333.17 
411.182 
328.954 
376.039 
358.733 
365.211 
358.568 
363.229 
359.545 
387.632 
356.066 
359.184 
336.615 
388.391 
317.613 
400.482 
377.059 
386.782 
377.564 
384.496 
365.535 
375.862 
392.566 
346.27 
357.077 
359.564 
358.67 
438.297 
405.642 
361.218 
420.408 
394.185 
363.991 
408.661 
413.405 
361.251 
394.878 
362.587 
364.334 
394.858 
371.896 
374.585 
393.37 
374.589 
428.697 
369.883 
393.342 
379.042 
379.084 
370.163 
351.881 
371.153 
374.58 
316.792 
392.063 
375.04 
417.235 
398.906 
383.432 
430.313 
372.376 
363.064 
370.553 
425.833 
363.221 
436.374 
366.216 
331.516 
400.073 
335.942 
304.69 
347.293 
320.541 
357.77 
357.175 
340.11 
361.17 
376.88 
341.603 
356.977 
399.431 
386.67 
344.175 
380.508 
382.344 
380.344 
399.909 
389.368 
385.968 
419.28 
394.575 
364.157 
413.06 
416.761 
380.29 
365.146 
394.916 
370.432 
406.107 
339.429 
361.987 
340.86 
366.556 
361.39 
379.13 
409.908 
394.258 
338.085 
427.073 
416.352 
412.127 
349.855 
410.507 
412.194 
367.08 
405.105 
408.952 
421.052 
379.542 
402.122 
394.917 
422.677 
381.437 
358.549 
423.244 
360.686 
386.704 
393.218 
459.878 
400.663 
424.005 
363.986 
405.843 
361.411 
399.765 
429.622 
387.96 
407.061 
420.334 
414.924 
396.65 
410.415 
442.871 
471.543 
395.49 
396.421 
376.556 
382.412 
382.881 
393.474 
414.245 
430.441 
450.595 
416.097 
442.001 
473.907 
400.57 
404.297 
429.621 
453.655 
470.403 
363.079 
405.58 
439.575 
383.631 
419.224 
366.089 
362.931 
413.519 
372.883 
458.004 
450.737 
404.257 
470.678 
420.132 
389.105 
384.91 
428.516 
462.719 
434.668 
376.546 
409.079 
418.937 
408.776 
392.086 
466.608 
445.735 
415.818 
458.684 
419.595 
430.512 
375.242 
334.939 
418.93 
424.881 
406.194 
452.971 
428.891 
448.77 
419.338 
453.207 
436.09 
385.636 
420.333 
403.835 
410.99 
387.28 
385.596 
396.815 
351.987 
385.459 
397.126 
393.333 
413.743 
392.152 
434.868 
434.289 
414.731 
370.879 
444.504 
388.801 
369.151 
361.553 
417.919 
336.135 
334.067 
375.314 
452.899 
369.763 
392.214 
383.832 
419.954 
416.539 
394.945 
412.747 
366.092 
394.893 
441.065 
380.159 
416.867 
441.826 
397.197 
427.732 
428.151 
401.24 
410.049 
392.101 
418.592 
381.589 
444.543 
437.035 
446.685 
449.746 
437.742 
395.834 
385.451 
450.938 
478.863 
440.982 
462.441 
491.839 
402.917 
407.186 
444.8 
449.148 
492.249 
387.907 
421.448 
441.216 
408.208 
387.397 
473.147 
423.165 
432.749 
378.243 
436.098 
398.113 
398.879 
477.025 
462.992 
417.001 
458.799 
427.295 
454.348 
430.926 
394.344 
349.033 
428.529 
466.375 
444.861 
384.442 
433.828 
413.68 
404.415 
458.841 
415.571 
478.559 
450.726 
436.671 
427.793 
464.384 
479.251 
474.56 
463.256 
452.357 
475.228 
421.115 
341.876 
393.424 
469.503 
418.947 
366.135 
393.768 
414.257 
395.799 
425.493 
428.784 
413.045 
420.991 
438.903 
470.977 
510.535 
439.072 
437.971 
493.502 
452.197 
456.232 
437.567 
439.23 
494.34 
408.355 
365.607 
428.03 
469.169 
484.938 
444.392 
434.618 
485.071 
412.182 
385.019 
425.832 
445.37 
443.709 
417.318 
472.154 
449.62 
438.172 
381.754 
463.17 
467.464 
446.349 
432.989 
445.355 
448.961 
460.711 
468.661 
443.091 
425.267 
524.63 
504.366 
424.197 
406.416 
480.073 
423.505 
464.412 
481.768 
464.304 
431.658 
415.688 
434.707 
493.653 
485.37 
420.136 
432.684 
456.111 
430.946 
437.278 
414.969 
403.932 
431.38 
369.068 
420.585 
433.711 
391.311 
452.828 
450.673 
380.707 
401.318 
414.962 
354.171 
412.347 
470.687 
419.129 
375.87 
502.928 
405.92 
411.553 
462.521 
446.206 
467.892 
423.233 
413.182 
437.9 
398.098 
444.215 
430.726 
450.239 
411.924 
400.213 
448.542 
464.538 
391.584 
395.622 
406.16 
434.94 
414.585 
406.336 
408.535 
428.477 
412.534 
464.416 
424.341 
424.247 
417.584 
431.26 
390.825 
459.738 
406.854 
403.456 
454.641 
407.649 
403.758 
441.801 
477.899 
412.516 
412.345 
482.069 
398.764 
455.414 
427.352 
467.898 
453.274 
449.73 
482.229 
456.435 
462.975 
431.826 
429.834 
507.6 
484.415 
436.372 
446.908 
406.284 
456.913 
446.23 
522.819 
442.032 
478.782 
499.193 
460.272 
475.691 
465.914 
496.152 
485.499 
451.52 
431.081 
469.828 
466.082 
491.693 
502.541 
414.847 
482.45 
484.725 
418.464 
438.227 
528.954 
419.611 
409.48 
524.272 
477.787 
504.537 
480.928 
526.445 
442.801 
497.547 
493.588 
461.254 
508.892 
461.699 
489.787 
470.337 
484.484 
437.159 
416.976 
455.173 
515.813 
389.41 
415.404 
455.468 
406.326 
425.565 
406.801 
472.752 
430.213 
404.187 
424.352 
445.435 
452.148 
408.429 
457.169 
462.441 
403.033 
433.543 
427.324 
462.897 
502.788 
469.461 
428.031 
475.873 
432.632 
407.386 
406.781 
458.101 
437.765 
507.042 
474.653 
460.319 
423.122 
475.447 
460.495 
508.207 
447.382 
502.974 
448.372 
478.416 
405.325 
454.174 
454.463 
429.67 
433.173 
463.471 
497.686 
431.171 
442.658 
474.276 
434.96 
522.863 
454.533 
443.412 
495.867 
435.462 
476.186 
476.685 
516.966 
519.769 
529.13 
469.399 
473.903 
443.282 
443.366 
451.619 
467.086 
477.773 
482.94 
471.1 
434.969 
451.345 
514.076 
470.364 
457.621 
447.377 
422.938 
433.243 
494.794 
432.045 
426.044 
460.653 
524.603 
427.322 
487.783 
453.027 
498.767 
461.963 
431.241 
436.835 
482.512 
477.722 
454.597 
548.297 
497.766 
453.616 
449.04 
413.344 
481.54 
540.113 
440.19 
529.878 
484.806 
473.642 
503.584 
475.797 
459.408 
509.444 
537.245 
493.087 
446.359 
469.448 
467.27 
445.76 
458.139 
488.001 
509.472 
451.07 
451.958 
410.847 
453.597 
480.681 
482.618 
539.172 
434.323 
503.255 
471.588 
481.642 
483.769 
487.066 
469.536 
465.146 
443.264 
452.238 
396.252 
492.198 
481.329 
489.832 
572.81 
492.523 
497.095 
569.241 
508.177 
500.419 
401.149 
476.434 
466.239 
529.484 
520.231 
514.711 
542.553 
544.761 
515.354 
602.329 
547.194 
464.111 
450.371 
512.863 
482.584 
482.143 
453.414 
561.22 
512.734 
463.805 
510.975 
587.695 
511.34 
564.155 
533.008 
503.043 
504.315 
471.409 
509.652 
513.998 
483.009 
520.119 
493.69 
493.092 
493.625 
505.521 
418.771 
463.954 
554.632 
535.148 
452.467 
475.872 
531.099 
541.467 
513.366 
480.174 
471.716 
487.488 
444.286 
477.566 
508.173 
508.618 
505.186 
444.376 
473.204 
474.68 
508.499 
447.134 
