ITEM: TIMESTEP
9900000
ITEM: NUMBER OF CELLS
1000
ITEM: BOX BOUNDS ss rr pp
0 0.004
0 0.01
-0.5 0.5
ITEM: CELLS f_temp1[*] 
312.54 
307.016 
259.99 
301.909 
284.733 
287.146 
291.417 
285.078 
301.722 
294.168 
300.71 
291.52 
265.402 
293.286 
274.007 
342.345 
321.475 
311.997 
301.538 
297.359 
322.825 
290.69 
296.277 
335.747 
314.7 
323.313 
302.116 
295.833 
335.934 
286.179 
312.607 
269.586 
242.461 
278.661 
309.957 
310.479 
307.639 
309.314 
314.729 
288.494 
285.706 
338.051 
333.078 
335.278 
312.366 
340.337 
331.395 
313.004 
339.121 
314.476 
319.42 
304.504 
333.175 
352.217 
335.322 
299.115 
339.692 
327.201 
308.099 
335.386 
321.611 
308.128 
311.956 
342.337 
324.207 
328.575 
337.943 
344.489 
310.254 
305.192 
320.031 
322.426 
335.932 
323.089 
287.201 
317.634 
361.385 
342.124 
331.533 
324.642 
298.502 
335.387 
313.845 
299.504 
345.251 
364.072 
309.359 
300.685 
290.889 
347.895 
318.319 
342.196 
337.582 
304.619 
368.743 
312.72 
281.797 
312.859 
329.072 
318.532 
307.613 
337.237 
349.735 
291.125 
337.891 
339.144 
336.955 
323.094 
338.712 
327.077 
294.367 
312.336 
306.545 
329.935 
321.495 
314.234 
320.172 
311.417 
291.984 
327.225 
322.288 
304.45 
323.816 
328.111 
339.731 
306.107 
320.933 
302.255 
331.79 
278.667 
345.104 
300.199 
314.099 
325.441 
338.183 
321.534 
310.655 
302.986 
362.741 
366.113 
358.372 
284.351 
324.34 
292.889 
329.679 
309.573 
327.371 
318.602 
340.979 
342.726 
316.173 
313.208 
306.679 
348.225 
378.047 
348.567 
320.408 
301.276 
378.723 
388.404 
393.365 
375.078 
340.85 
336.154 
346.025 
336.428 
335.41 
350.736 
362.461 
311.13 
339.586 
355.151 
314.8 
287.607 
340.492 
323.777 
334.826 
345.51 
316.169 
315.944 
361.92 
347.529 
356.488 
381.273 
357.668 
307.798 
358.244 
345.811 
384.532 
358.75 
339.933 
324.906 
387.952 
347.675 
347.447 
350.157 
353.197 
355.97 
319.667 
351.85 
380.588 
365.649 
327.122 
323.519 
386.428 
335.671 
346.903 
315.793 
377.344 
366.156 
332.917 
382.874 
367.307 
295.632 
358.381 
327.48 
380.827 
311.873 
348.325 
303.971 
348.426 
313.764 
374.997 
306.312 
433.171 
342.352 
338.163 
346.995 
364.606 
360.418 
330.516 
334.709 
320.252 
373.305 
303.025 
341.526 
334.289 
306.079 
322.612 
291.161 
312.087 
328.365 
346.351 
297.496 
324.527 
287.966 
335.993 
289.874 
316.534 
352.922 
391.776 
337.934 
369.585 
352.733 
362.825 
328.53 
316.323 
396.217 
346.426 
319.549 
321.377 
326.921 
335.43 
352.086 
357.575 
366.671 
349.836 
382.13 
373.497 
379.944 
358.238 
324.745 
326.945 
317.126 
347.167 
317.679 
339.727 
397.626 
364.297 
347.555 
355.799 
313.397 
362.701 
349.478 
358.082 
401.572 
404.195 
345.683 
361.057 
334.415 
369.864 
377.485 
346.133 
339.184 
343.344 
398.058 
348.665 
352.415 
406.033 
363.683 
353.248 
354.457 
395.732 
348.781 
331.899 
305.133 
350.796 
363.234 
355.099 
367.733 
388.188 
346.863 
368.713 
427.358 
405.69 
390.906 
335.151 
407.206 
348.656 
368.68 
362.651 
365.555 
398.643 
380.165 
311.712 
422.032 
395.35 
378.645 
386.717 
344.407 
444.892 
370.096 
382.238 
372.348 
346.129 
382.595 
397.483 
385.129 
370.237 
333.182 
391.814 
438.213 
347.436 
411.909 
439.036 
398.708 
373.91 
468.005 
360.78 
414.533 
366.85 
399.41 
355.166 
402.532 
347.317 
367.736 
388.479 
409.807 
414.803 
345.911 
409.568 
410.527 
411.428 
394.309 
415.135 
423.267 
378.926 
453.079 
347.183 
382.891 
411.688 
344.886 
359.524 
403.229 
355.986 
354.394 
368.097 
418.512 
399.897 
376.648 
382.671 
375.806 
383.636 
434.375 
399.059 
394.817 
373.539 
338.848 
328.251 
353.411 
375.682 
386.218 
374.982 
365.305 
373.508 
379.98 
331.444 
351.657 
393.305 
393.224 
374.016 
398.232 
394.338 
376.67 
407.097 
410.393 
396.335 
357.74 
402.995 
383.765 
345.117 
387.947 
369.266 
424.975 
356.056 
368.792 
357.657 
333.276 
346.208 
412.933 
335.18 
392.964 
379.794 
363.214 
382.151 
364.545 
376.265 
343.263 
414.82 
352.466 
396.37 
396.66 
452.433 
357.379 
403.093 
435.576 
351.48 
402.377 
406.287 
431.007 
399.542 
375.009 
438.472 
434.968 
402.695 
396.306 
374.413 
347.058 
405.576 
391.973 
379.284 
392.231 
406.3 
439.499 
436.984 
408.999 
424.506 
410.377 
381.752 
440.639 
381.491 
394.21 
375.902 
367.732 
394.728 
355.498 
356.775 
355.133 
407.033 
443.031 
372.916 
386.75 
387.415 
404.449 
428.293 
362.162 
441.722 
446.706 
440.769 
448.092 
355.896 
445.843 
422.115 
468.911 
467.014 
366.832 
404.274 
361.267 
330.417 
317.166 
354.229 
333.513 
361.321 
413.912 
429.544 
397.783 
409.025 
384.492 
404.935 
368.192 
392.656 
361.597 
373.967 
419.173 
388.652 
410.792 
414.216 
407.685 
432.205 
433.271 
416.337 
463.372 
384.585 
403.444 
422.393 
396.716 
439.712 
421.245 
384.87 
391.08 
431.563 
408.436 
445.913 
434.054 
431.644 
379.311 
441.117 
381.031 
446.12 
459.907 
428.154 
406.378 
398.603 
435.399 
419.823 
393.789 
341.984 
363.914 
480.885 
409.541 
434.043 
418.155 
386.819 
380.872 
389.532 
384.537 
417.495 
391.152 
381.257 
371.688 
381.806 
386.678 
434.099 
433.153 
418.66 
393.285 
388.907 
402.664 
432.599 
423.373 
448.507 
447.551 
395.942 
421.943 
440.776 
443.133 
415.51 
373.789 
378.395 
427.714 
415.059 
400.789 
420.977 
369.478 
417.755 
392.705 
394.163 
407.594 
424.937 
360.315 
401.53 
432.182 
423.939 
427.455 
407.026 
392.799 
407.993 
411.841 
396.129 
401.728 
408.768 
435.71 
374.295 
386.38 
386.194 
398.47 
363.875 
385.889 
367.022 
381.637 
413.43 
442.755 
431.34 
387.502 
384.273 
426.287 
405.686 
389.703 
422.792 
390.575 
396.385 
422.965 
433.058 
401.042 
422.572 
428.323 
380.395 
410.715 
375.411 
352.535 
380.545 
409.404 
409.943 
351.338 
377.952 
391.317 
389.241 
432.14 
412.96 
431.9 
453.449 
491.082 
427.338 
430.341 
437.842 
430.678 
424.964 
408.978 
371.635 
408.262 
413.377 
435.432 
421.954 
444.006 
374.225 
418.522 
386.478 
479.657 
401.226 
391.51 
451.012 
381.015 
424.292 
426.4 
414.203 
454.508 
389.131 
446.021 
418.955 
426.348 
437.41 
468.127 
448.457 
406.063 
455.096 
419.127 
406.968 
447.243 
406.317 
451.988 
414.468 
434.348 
417.441 
457.359 
454.684 
440.051 
431.664 
380.282 
478.189 
441.159 
406.281 
444.189 
484.011 
458.788 
478.733 
545.507 
439.02 
487.019 
515.494 
426.715 
440.555 
479.307 
434.275 
502.604 
461.364 
374.926 
462.714 
424.473 
476.21 
451.97 
470.668 
487.152 
415.739 
404.465 
435.042 
407.066 
410.196 
441.653 
442.957 
417.326 
389.459 
401.503 
427.241 
398.024 
402.063 
418.323 
486.777 
406.819 
447.688 
410.993 
442.555 
397.105 
458.66 
415.967 
374.958 
381.713 
439.246 
467.605 
519.792 
469.233 
439.707 
408.794 
410.288 
390.378 
407.937 
458.314 
413.578 
407.345 
406.122 
466.079 
488.329 
471.08 
412.642 
442.668 
484.423 
448.81 
486.735 
436.031 
456.869 
425.071 
438.273 
448.657 
437.496 
426.841 
446.591 
444.11 
472.377 
431.777 
473.274 
422.632 
450.933 
475.512 
485.389 
398.613 
424.915 
415.894 
487.607 
459.486 
485.107 
440.161 
470.23 
455.437 
480.737 
490.334 
491.831 
430.137 
447.258 
458.694 
455.525 
447.834 
446.349 
428.917 
461.845 
447.572 
422.502 
466.078 
468.879 
436.697 
465.913 
489.124 
435.312 
477.809 
493.858 
428.15 
516.419 
395.096 
455.912 
436.517 
422.242 
418.42 
411.697 
397.198 
445.866 
487.469 
446.903 
455.014 
456.577 
459.074 
454.302 
433.184 
433.388 
488.909 
447.768 
460.55 
509.136 
477.21 
515.288 
494.571 
477.184 
490.779 
414.736 
426.377 
443.085 
449.722 
488.291 
444.116 
508.72 
445.936 
530.939 
519.767 
488.58 
441.283 
432.639 
484.196 
438.923 
398.989 
475.599 
396.416 
463.312 
480.574 
472.987 
452.91 
409.919 
426.716 
440.7 
456.658 
463.579 
490.016 
525.993 
548.462 
454.554 
467.677 
431.748 
506.487 
462.626 
407.397 
469.974 
435.749 
425.076 
469.136 
485.125 
425.671 
403.59 
420.38 
463.57 
421.597 
435.924 
460.774 
486.902 
457.012 
499.117 
481.476 
459.027 
398.125 
428.045 
447.918 
469.36 
461.669 
540.977 
462.16 
467.883 
439.115 
496.2 
481.945 
467.214 
445.029 
450.595 
489.004 
476.22 
467.244 
374.333 
490.503 
474.958 
547.517 
486.14 
458.726 
501.461 
519.118 
440.516 
455.537 
513.769 
451.077 
472.898 
464.069 
500.54 
514.931 
466.354 
457.448 
416.432 
484.261 
492.774 
496.694 
460.686 
455.157 
463.582 
476.886 
480.489 
462.648 
470.521 
482.16 
510.029 
471.169 
508.171 
449.419 
474.323 
509.267 
488.799 
460.96 
478.835 
464.368 
413.212 
523.791 
500.418 
536.652 
491.529 
488.457 
480.752 
430.174 
396.712 
509.035 
488.394 
511.598 
482.711 
499.64 
443.215 
461.798 
441.722 
473.35 
446.862 
488.257 
558.419 
510.495 
506.375 
487.231 
496.6 
572.236 
524.422 
553.088 
426.817 
473.478 
523.558 
520.868 
578.84 
518.795 
478.452 
555.288 
486.421 
477.761 
464.825 
519.795 
465.87 
525.328 
544.46 
591.83 
536.423 
544.688 
566.621 
535.528 
532.488 
521.904 
465.531 
480.623 
504.77 
553.462 
454.822 
471.642 
545.301 
496.086 
566.721 
570.341 
481.759 
493.62 
509.849 
506.801 
524.636 
494.621 
407.396 
496.804 
537.447 
588.105 
