ITEM: TIMESTEP
6800000
ITEM: NUMBER OF CELLS
1000
ITEM: BOX BOUNDS ss rr pp
0 0.004
0 0.01
-0.5 0.5
ITEM: CELLS f_temp1[*] 
318.768 
318.311 
295.239 
323.507 
334.54 
309.421 
308.142 
329.378 
312.521 
315.687 
316.529 
319.195 
327.515 
323.845 
301.442 
346.688 
318.506 
344.566 
323.288 
334.509 
336.91 
319.937 
325.031 
316.305 
324.416 
344.561 
324.75 
348.85 
319.243 
318.453 
335.936 
327.794 
315.091 
353.071 
325.734 
320.338 
335.97 
313.994 
314.704 
310.464 
294.379 
316.078 
330.409 
362.531 
316.03 
327.264 
308.722 
286.872 
342.372 
318.689 
304.527 
327.286 
275.084 
343.101 
290.976 
326.356 
338.811 
314.531 
294.867 
323.812 
282.837 
298.964 
326.681 
290.422 
329.349 
306.702 
288.984 
305.471 
307.508 
354.322 
345.092 
346.101 
343.687 
316.221 
333.213 
356.047 
336.991 
332.968 
313.043 
298.214 
306.515 
299.839 
345.104 
365.083 
366.173 
338.909 
355.188 
355.863 
349.704 
330.158 
315.373 
354.397 
331.542 
350.339 
331.266 
294.342 
309.314 
341.97 
331.378 
310.757 
266.168 
346.041 
340.993 
383.378 
313.048 
351.969 
350.578 
372.994 
323.586 
337.58 
348.223 
344.084 
370.944 
373.858 
327.071 
327.379 
409.411 
369.774 
366.263 
395.061 
349.344 
383.823 
366.953 
381.046 
362.641 
355.315 
365.733 
329.161 
339.557 
336.542 
378.573 
332.952 
357.405 
352.759 
395.926 
356.209 
348.159 
354.415 
340.514 
420.562 
382.37 
378.225 
360.514 
362.08 
405.503 
397.072 
367.67 
372.905 
379.04 
341.838 
408.468 
349.618 
369.302 
365.971 
395.502 
364.662 
393.431 
351.85 
406.869 
362.939 
372.825 
354.531 
367.455 
401.163 
361.184 
377.485 
387.344 
372.324 
365.014 
345.558 
336.532 
353.323 
378.236 
351.799 
309.722 
360.726 
374.118 
364.508 
397.207 
380.624 
345.492 
332.13 
363.064 
366.142 
334.753 
335.316 
360.986 
351.357 
404.035 
341.729 
334.927 
330.918 
350.825 
374.599 
351.959 
378.291 
329.18 
312.675 
379.534 
352.916 
322.252 
339.957 
361.969 
370.71 
349.374 
377.761 
355.715 
401.753 
357.704 
362.859 
369.575 
308.321 
339.35 
378.093 
345.738 
345.974 
377.117 
348.734 
356.228 
368.325 
395.38 
365.814 
368.179 
338.874 
384.632 
376.21 
380.424 
385.792 
380.629 
426.849 
348.012 
372.745 
374.629 
370.105 
353.601 
368.83 
352.384 
334.314 
359.714 
327.415 
363.725 
376.588 
325.011 
356.858 
351.598 
362.319 
367.702 
350.178 
393.382 
349.08 
366.849 
313.025 
375.374 
360.251 
338.346 
341.213 
331.622 
320.484 
351.124 
375.271 
326.064 
361.689 
331.885 
350.379 
356.107 
326.988 
342.996 
372.376 
342.883 
299.3 
363.563 
325.772 
363.466 
312.627 
359.818 
381.273 
326.588 
377.78 
353.892 
365.714 
374.907 
376.124 
393.749 
377.801 
385.843 
388.374 
380.896 
394.894 
362.354 
320.539 
385.998 
401.15 
391.694 
341.026 
351.66 
392.303 
396.246 
369.703 
342.821 
342.829 
339.575 
368.279 
345.54 
336.509 
376.216 
371.992 
344.438 
371.402 
333.125 
367.883 
337.077 
322.313 
339.98 
355.441 
376.511 
321.425 
394.017 
398.693 
363.945 
355.716 
324.314 
350.345 
365.452 
341.416 
354.685 
323.276 
360.363 
373.534 
339.754 
438.455 
377.195 
387.846 
329.394 
346.773 
379.085 
357.289 
378.692 
372.421 
416.586 
369.263 
357.366 
411.058 
357.929 
405.534 
434.437 
387.68 
387.173 
421.174 
399.611 
449.531 
399.529 
383.642 
400.189 
407.929 
401.644 
368.869 
364.628 
383.253 
418.282 
425.834 
424.277 
378.824 
386.095 
410.194 
419.07 
413.245 
387.299 
425.653 
384.991 
453.951 
459.441 
370.102 
358.218 
375.823 
439.612 
383.24 
383.589 
365.414 
449.341 
412.021 
388.899 
393.04 
416.745 
445.238 
386.423 
474.883 
362.046 
354.895 
337.139 
357.75 
390.51 
375.286 
408.441 
369.984 
363.912 
395.209 
399.064 
348.816 
385.933 
383.576 
405.391 
394.36 
384.243 
351.896 
393.61 
387.688 
392.534 
369.911 
389.253 
351.24 
374.246 
398.196 
321.362 
400.48 
356.406 
381.164 
392.73 
412.611 
387.311 
422.56 
388.657 
400.274 
373.66 
382.554 
378.657 
422.61 
432.912 
388.712 
387.869 
438.602 
418.286 
415.783 
448.603 
384.269 
336.453 
411.47 
459.382 
376.227 
438.962 
371.583 
438.75 
438.318 
383.46 
388.426 
386.267 
447.098 
416.105 
367.94 
405.959 
419.792 
395.756 
408.501 
389.307 
390.928 
424.929 
377.709 
395.698 
426.136 
384.793 
353.354 
382.838 
422.875 
460.175 
450.528 
408.187 
401.846 
485.023 
448.327 
426.865 
402.579 
481.181 
428.423 
436.715 
481.195 
470.496 
400.375 
428.102 
413.569 
411.433 
460.934 
395.879 
387.522 
379.865 
435.576 
411.271 
413.678 
410.312 
420.816 
389.862 
439.531 
423.989 
395.139 
412.02 
378.989 
407.956 
425.267 
416.984 
439.779 
440.857 
427.487 
404.333 
428.904 
399.814 
406.556 
373.349 
398.401 
418.978 
401.356 
375.44 
407.974 
425.683 
378.42 
412.027 
379.064 
398.78 
388.465 
375.723 
379.869 
379.629 
367.823 
389.549 
439.958 
442.122 
433.718 
388.603 
399.352 
371.975 
387.565 
431.855 
414.779 
396.506 
450.74 
427.936 
454.157 
377.276 
455.781 
431.085 
380.859 
452.722 
423.123 
366.454 
433.454 
413.736 
413.917 
412.078 
445.021 
422.561 
448.8 
462.237 
436.478 
434.812 
418.767 
442.78 
419.411 
394.902 
396.6 
452.428 
438.158 
454.685 
455.374 
421.943 
425.227 
441.867 
443.791 
449.893 
438.365 
400.032 
413.455 
393.344 
423.008 
441.412 
417.858 
391.793 
372.5 
453.821 
390.331 
417.006 
442.832 
387.094 
393.267 
373.633 
498.122 
430.171 
408.285 
410.112 
380.97 
423.674 
477.149 
430.684 
438.746 
453.886 
420.33 
366.651 
396.01 
429.304 
452.319 
441.258 
459.53 
427.906 
461.348 
404.985 
481.382 
404.761 
417.651 
454.194 
477.625 
412.887 
455.018 
473.074 
402.42 
444.31 
387.758 
459.171 
464.194 
420.648 
483.213 
419.639 
432.586 
410.091 
477.867 
422.544 
500.872 
465.006 
447.987 
442.338 
453.107 
444.727 
452.476 
406.331 
420.941 
443.168 
467.665 
427.608 
427.643 
415.897 
461.5 
475.693 
424.607 
464.478 
489.508 
417.498 
449.181 
447.921 
433.14 
542.368 
478.477 
468.459 
496.112 
410.889 
436.652 
436.785 
428.82 
419.755 
444.202 
421.313 
522.892 
425.635 
413.237 
373.965 
488.082 
485.499 
453.677 
413.698 
463.956 
472.98 
458.479 
462.107 
433.414 
469.708 
449.719 
434.255 
490.787 
474.431 
463.372 
451.002 
455.806 
429.598 
422.274 
401.587 
516.488 
452.155 
433.502 
482.2 
426.951 
455.738 
486.705 
503.214 
464.536 
420.642 
406.733 
422.496 
378.708 
480.167 
441.525 
391.419 
422.009 
478.863 
482.98 
493.541 
432.337 
415.244 
451.208 
431.454 
484.654 
422.948 
472.32 
379.143 
435.201 
462.177 
511.995 
422.512 
431.176 
435.01 
487.47 
418.331 
420.598 
429.489 
513.395 
471.599 
475.174 
440.763 
415.97 
539.994 
550.036 
451.739 
454.432 
446.282 
461.291 
507.579 
428.236 
453.275 
420.37 
556.103 
478.634 
443.68 
450.579 
401.159 
445.583 
411.316 
449.067 
564.934 
498.413 
445.541 
485.831 
454.949 
476.661 
471.613 
522.369 
437.829 
423.305 
503.902 
404.762 
438.53 
503.15 
485.092 
537.736 
519.622 
522.611 
499.708 
447.082 
452.188 
538.99 
497.606 
532.21 
432.026 
445.179 
496.73 
479.04 
524.396 
526.186 
441.554 
479.713 
432.112 
422.727 
504.152 
518.887 
472.692 
396.959 
512.559 
490.88 
483.816 
516.641 
448.593 
552.137 
462.833 
434.48 
563.679 
477.013 
501.385 
469.81 
511.083 
473.181 
552.098 
505.544 
463.473 
482.009 
461.729 
393.479 
477.079 
424.807 
512.385 
537.424 
413.908 
447.024 
448.353 
471.514 
444.142 
468.985 
425.281 
463.468 
474.509 
494.789 
490.016 
416.196 
479.096 
530.026 
420.572 
453.744 
424.111 
462.562 
436.489 
384.955 
456.174 
430.952 
538.26 
456.649 
407.206 
441.632 
470.649 
429.792 
446.701 
443 
425.235 
506.572 
490.776 
453.972 
545.276 
455.352 
490.914 
469.747 
431.815 
425.43 
518.291 
440.831 
436.751 
453.581 
433.462 
466.627 
477.799 
433.051 
469.825 
446.653 
419.835 
397.065 
519.24 
476.698 
532.166 
462.263 
437.263 
526.196 
454.617 
546.562 
392.346 
513.545 
480.626 
429.401 
566.571 
492.469 
459.942 
461.488 
435.806 
438.135 
472.793 
459.88 
451.173 
463.094 
444.801 
486.86 
469.182 
484.335 
433.091 
465.096 
448.517 
514.551 
583.86 
449.148 
475.959 
553.294 
467.81 
449.48 
470.88 
544.305 
435.802 
456.021 
447.413 
509.117 
445.04 
509.827 
491.829 
460.014 
508.97 
581.449 
551.496 
408.512 
429.24 
440.057 
434.947 
489.738 
505.82 
414.723 
466.546 
513.057 
512.513 
510.03 
498.894 
478.011 
440.027 
467.466 
498.021 
429.821 
521.648 
435.732 
463.651 
448.18 
496.485 
482.607 
478.276 
478.871 
489.572 
550.067 
541.192 
496.314 
482.706 
514.552 
531.157 
488.298 
533.783 
458.105 
465.056 
503.285 
522.621 
437.518 
471.157 
508.004 
507.356 
413.691 
482.918 
538.93 
527.961 
475.121 
456.773 
501.569 
458.121 
460.514 
586.06 
468.091 
486.034 
514.47 
499.894 
553.523 
509.025 
472.437 
501.29 
378.557 
512.983 
494.398 
439.872 
495.709 
523.134 
448.734 
496.277 
488.487 
505.922 
553.571 
484.232 
480.137 
498.633 
511.427 
509.307 
372.055 
543.62 
542.406 
449.14 
533.378 
541.682 
475.206 
447.899 
462.683 
555.684 
444.189 
445.538 
519.31 
484.434 
449.833 
555.734 
477.123 
502.539 
492.77 
506.275 
479.255 
