ITEM: TIMESTEP
7500000
ITEM: NUMBER OF CELLS
1000
ITEM: BOX BOUNDS ss rr pp
0 0.004
0 0.01
-0.5 0.5
ITEM: CELLS f_temp1[*] 
328.679 
289.61 
274.832 
313.513 
316.433 
320.063 
311.291 
301.018 
359.368 
315.48 
305.038 
316.398 
303.766 
307.492 
290.731 
302.343 
344.252 
305.578 
300.883 
324.221 
345.115 
332.521 
343.321 
331.369 
333.03 
314.703 
335.982 
339.55 
342.647 
380.152 
288.452 
316.672 
353.05 
330.061 
364.198 
344.195 
328.74 
382.554 
378.071 
334.348 
346.836 
330.232 
329.577 
323.859 
297.119 
359.758 
290.07 
310.276 
344.972 
309.493 
338.539 
328.141 
341.352 
312.354 
333.614 
331.41 
355.304 
320.977 
333.222 
378.128 
373.291 
327.022 
316.594 
350.035 
321.779 
297.281 
331.907 
331.785 
287.535 
295.097 
296.778 
348.495 
324.335 
320.561 
336.428 
319.058 
316.612 
347.14 
336.786 
304.134 
362.135 
315.882 
319.493 
311.331 
317.029 
312.516 
306.565 
309.793 
334.33 
317.5 
326.212 
311.655 
313.215 
350.438 
313.417 
334.083 
345.991 
344.83 
320.421 
385.316 
362.923 
343.302 
356.063 
297.42 
344.95 
316.327 
346.416 
317.933 
326.389 
320.345 
332.76 
301.985 
313.37 
330.985 
365.452 
331.983 
348.445 
337.415 
312.346 
314.286 
322.691 
325.962 
326.988 
305.792 
345.899 
314.95 
287.499 
325.594 
337.774 
323.219 
348.06 
338.541 
357.179 
318.484 
349.933 
289.038 
380.815 
327.962 
371.934 
352.161 
303.1 
311.328 
364.793 
329.035 
404.995 
363.732 
363.618 
310.938 
340.008 
333.35 
345.377 
324.087 
339.269 
309.885 
340.462 
304.17 
363.247 
310.508 
365.933 
377.287 
338.288 
346.484 
355.386 
340.569 
349.846 
326.114 
330.606 
351.144 
382.748 
344.558 
375.304 
372.905 
366.181 
352.815 
371.563 
315.396 
356.793 
360.687 
353.374 
346.446 
390.744 
341.536 
394.644 
306.848 
377.725 
326.41 
358.827 
341.062 
357.345 
379.53 
366.985 
368.484 
321.041 
342.94 
303.459 
346.949 
326.588 
368.951 
319.306 
317.714 
352.138 
325.719 
365.263 
333.098 
374.7 
376.436 
380.298 
382.821 
355.035 
371.005 
349.781 
335.451 
347.702 
372.006 
358.914 
372.759 
359.15 
390.94 
388.588 
360.329 
373.977 
406.889 
369.644 
441.049 
388.688 
374.956 
370.09 
370.39 
318.213 
359.576 
353.658 
398.709 
358.021 
366.452 
378.108 
345.707 
366.669 
358.354 
378.098 
383.92 
413.685 
390.196 
356.06 
388.031 
370.178 
428.756 
362.66 
398.864 
336.68 
394.832 
357.556 
350.555 
361.738 
398.526 
309.539 
344.15 
336.328 
377.485 
369.812 
398.069 
336.769 
377.479 
390.745 
375.853 
342.152 
388.7 
332.125 
341.126 
373.241 
313.279 
344.007 
345.015 
360.257 
352.191 
383.043 
404.646 
360.152 
359.452 
341.899 
329.405 
408.574 
382.235 
341.834 
403.768 
385.919 
375.96 
367.779 
339.465 
355.707 
352.121 
380.741 
347.095 
336.122 
358.552 
344.619 
407.36 
436.916 
398.973 
398.495 
401.997 
386.087 
379.165 
428.349 
347.79 
353.887 
340.164 
354.041 
352.277 
370.656 
347.854 
359.855 
442.985 
335.346 
380.719 
371.167 
381.11 
391.869 
400.237 
351.586 
382.075 
444.177 
379.9 
407.228 
408.817 
385.166 
405.173 
407.235 
410.696 
378.334 
380.797 
443.801 
362.372 
373.758 
361.194 
406.64 
390.854 
406.15 
413.758 
365.459 
406.366 
399.796 
387.314 
391.169 
371.615 
395.165 
363.773 
412.134 
372.811 
372.065 
384.029 
432.376 
430.174 
356.872 
373.169 
391.931 
394.119 
367.939 
369.35 
388.388 
392.029 
370.616 
384.873 
353.334 
408.954 
375.823 
379.31 
369.724 
384.493 
381.273 
380.018 
356.498 
412.811 
413.193 
387.943 
373.361 
340.241 
381.812 
407.284 
336.193 
353.184 
388.004 
345.715 
357.542 
361.107 
342.228 
391.29 
386.884 
377.656 
396.262 
411.963 
388.55 
361.244 
368.205 
361.156 
401.967 
349.852 
428.892 
363.812 
362.363 
392.027 
390.935 
374.505 
398.645 
417.778 
372.322 
377.698 
374.613 
402.803 
403.648 
433.501 
384.476 
375.38 
360.3 
402.722 
369.582 
409.829 
382.926 
426.164 
400.487 
405.139 
451.9 
379.523 
387.36 
402.334 
408.768 
397.339 
404.012 
404.534 
412.05 
418.161 
393.323 
411.505 
428.092 
434.375 
415.779 
410.696 
417.674 
416.986 
432.417 
434.719 
392.141 
426.805 
447.464 
465.596 
523.499 
378.659 
421.234 
359.891 
410.838 
408.955 
401.423 
403.565 
416.808 
391.919 
425.835 
415.733 
385.13 
456.84 
428.798 
446.024 
439.835 
438.376 
423.039 
425.722 
445.734 
404.129 
382.526 
441.267 
409.85 
417.65 
401.796 
423.167 
387.801 
449.407 
461.603 
404.442 
409.674 
396.134 
370.528 
402.383 
396.47 
403.155 
357.989 
420.825 
389.687 
459.705 
452.181 
408.696 
424.198 
413.629 
415.212 
408.806 
414.448 
407.127 
409.807 
410.425 
420.417 
408.211 
407.31 
403.264 
379.373 
433.173 
401.315 
433.047 
436.754 
407.237 
359.457 
424.854 
380.758 
349.133 
408.149 
412.111 
401.54 
418.5 
394.039 
391.745 
431.852 
408.503 
438.821 
419.945 
398.214 
440.282 
375.93 
426.117 
454.701 
410.473 
454.781 
439.701 
375.041 
421.979 
441.223 
425.532 
403.767 
455.645 
401.062 
413.043 
412.172 
428.74 
445.036 
414.901 
462.95 
418.411 
443.168 
388.041 
388.157 
437.207 
409.132 
437.372 
436.473 
485.737 
399.476 
342.884 
418.628 
403.06 
441.111 
448.622 
438.909 
517.587 
478.914 
412.114 
479.811 
396.322 
429.921 
432.558 
462.986 
456.035 
476.06 
454.865 
411.401 
402.561 
402.786 
410.275 
441.522 
379.758 
403.704 
364.87 
395.114 
421.448 
409.437 
356.047 
425.347 
431.346 
364.171 
366.547 
399.619 
379.223 
377.409 
425.793 
409.417 
375.008 
390.811 
365.549 
417.996 
419.184 
410.827 
413.478 
403.493 
443.463 
424.968 
443.758 
340.615 
418.395 
389.268 
420.982 
402.117 
398.127 
377.361 
424.889 
460.483 
426.183 
450.977 
433.568 
387.791 
450.545 
432.507 
409.001 
408.25 
462.519 
424.548 
407.406 
455.953 
427.148 
461.935 
468.69 
409.927 
439.985 
381.545 
444.767 
429.334 
401.547 
415.212 
420.942 
412.773 
434.421 
430.716 
459.158 
385.694 
441.529 
451.515 
413.666 
459.498 
505.312 
425.534 
401.472 
479.066 
391.151 
449.208 
460.13 
436.757 
450.599 
508.925 
456.991 
402.566 
445.374 
441.152 
482.278 
441.486 
423.91 
482.06 
441.462 
417.615 
438.817 
407.234 
422.999 
428.479 
455.859 
426.334 
416.884 
492.665 
435.672 
401.857 
456.893 
437.192 
460.53 
479.95 
476.082 
427.555 
505.372 
409.476 
410.722 
468.625 
492.616 
423.423 
459.945 
451.798 
495.592 
424.973 
462.821 
448.635 
433.642 
455.853 
434.453 
424.288 
466.486 
443.911 
432.898 
426.725 
449.693 
492.443 
454.56 
404.043 
470.361 
421.91 
454.971 
476.863 
433.474 
414.279 
424.575 
434.229 
445.731 
430.28 
482.056 
464.327 
489.219 
488.795 
460.971 
435.01 
495.975 
511.361 
477.436 
452.457 
413.357 
492.921 
445.236 
485.978 
402.693 
440.433 
440.788 
457.951 
437.418 
445.237 
445.974 
461.931 
397.375 
445.27 
468.82 
453.299 
407.71 
485.501 
446.741 
458.882 
442.849 
477.671 
493.211 
413.879 
418.683 
467.412 
424.501 
433.39 
485.945 
473.441 
511.886 
459.873 
499.428 
438.786 
447.839 
466.762 
505.404 
454.529 
445.297 
471.373 
461.703 
451.308 
440.581 
413.129 
464.797 
449.323 
428.647 
464.063 
488.778 
487.216 
465.373 
416.334 
528.981 
481.234 
467.534 
436.068 
483.975 
508.16 
463.677 
501.076 
499.136 
431.46 
492.438 
444.128 
453.949 
495.261 
446.713 
437.995 
385.943 
525.365 
522.328 
523.583 
552.284 
479.193 
446.639 
534.725 
425.001 
443.356 
487.926 
529.274 
506.104 
528.044 
473.209 
563.663 
470.78 
478.391 
511.671 
467.138 
476.076 
402.807 
535.033 
498.055 
491.591 
524.006 
498.033 
473.32 
445.193 
514.919 
411.158 
476.311 
505.065 
528.421 
450.672 
470.867 
476.947 
442.881 
533.109 
491.374 
492.707 
551.683 
508.227 
456.003 
496.823 
514.676 
527.663 
428.903 
500.864 
412.817 
465.699 
478.017 
492.039 
549.82 
441.081 
452.976 
496.052 
518.378 
464.045 
463.634 
440.617 
500.999 
490.345 
524.15 
598.107 
490.588 
453.371 
444.49 
549.411 
519.562 
480.235 
531.322 
506.734 
525.81 
513.265 
502.883 
501.771 
499.416 
461.43 
514.274 
494.044 
409.215 
466.777 
519.301 
487.039 
470.146 
511.975 
377.55 
484.095 
444.926 
473.062 
509.168 
548.041 
519.055 
470.343 
535.474 
492.868 
444.844 
440.47 
469.219 
439.032 
474.953 
516.574 
417.552 
475.206 
465.755 
448.117 
501.771 
564.929 
448.371 
474.559 
526.574 
498.756 
465.134 
476.2 
420.541 
434.011 
463.785 
484.161 
441.491 
503.243 
501.472 
444.587 
481.385 
515.218 
482.541 
530.325 
433.707 
408.566 
443.049 
439.386 
491.25 
444.989 
516.624 
437.115 
452.12 
492.498 
427.971 
490.277 
497.052 
436.964 
473.939 
466.787 
437.086 
398.063 
402.748 
532.742 
476.55 
531.112 
467.533 
506.288 
470.484 
545.985 
461.586 
529.834 
424.089 
501.033 
490.6 
553.998 
433.375 
508.459 
463.883 
500.235 
499.173 
567.687 
532.259 
473.477 
475.966 
477.842 
550.722 
542.199 
519.244 
501.279 
467.186 
502.634 
535.949 
474.869 
495.567 
449.539 
490.641 
523.291 
488.068 
469.546 
501.816 
506.826 
468.817 
428.381 
492.533 
463.094 
520.024 
467.478 
459.337 
514.372 
480.745 
505.13 
511.858 
496.368 
571.957 
520.041 
484.997 
642.196 
488.963 
493.116 
439.066 
487.497 
574.849 
465.229 
491.232 
485.736 
447.285 
567.74 
