ITEM: TIMESTEP
2900000
ITEM: NUMBER OF CELLS
1000
ITEM: BOX BOUNDS ss rr pp
0 0.004
0 0.01
-0.5 0.5
ITEM: CELLS f_temp1[*] 
294.599 
294.574 
274.778 
288.499 
278.761 
280.306 
323.253 
306.275 
302.476 
313.871 
274.74 
292.996 
276.152 
288.615 
283.933 
262.999 
276.229 
283.902 
284.998 
289.879 
328.469 
300.994 
291.038 
357.868 
325.224 
286.144 
301.455 
305.221 
269.231 
323.538 
294.014 
299.706 
271.492 
316.749 
272.987 
326.674 
296.741 
325.841 
330.535 
296.05 
319.036 
304.779 
273.234 
317.329 
305.507 
314.666 
293.966 
322.116 
277.156 
324.126 
281.079 
314.523 
300.323 
316.018 
319.215 
314.454 
324.509 
293.201 
349.126 
346.437 
289.613 
323.892 
321.98 
308.163 
263.526 
314.221 
312.754 
310.711 
323.705 
340.972 
311.293 
309.672 
308.769 
309.264 
316.195 
338.64 
327.583 
332.675 
358.817 
305.834 
342.403 
309.748 
332.685 
351.191 
314.902 
363.026 
355.904 
359.045 
349.633 
346.201 
355.715 
332.201 
317.226 
333.061 
338.254 
352.854 
347.874 
343.087 
371.59 
330.903 
347.928 
378.437 
335.376 
360.395 
317.367 
320.869 
363.935 
338.118 
337.567 
341.158 
361.587 
364.863 
309.907 
305.399 
365.869 
335.782 
335.794 
314.921 
314.521 
329.262 
323.605 
332.426 
315.924 
313.085 
313.767 
322.394 
313.162 
352.132 
347.393 
342.775 
326.248 
313.362 
314.075 
343.615 
351.089 
351.933 
293.934 
350.818 
358.195 
347.604 
334.319 
348.01 
378.908 
329.891 
338.707 
327.846 
370.982 
358.82 
332.977 
341.575 
338.005 
353.284 
346.998 
320.006 
317.315 
310.501 
323.232 
314.983 
354.303 
335.257 
340.647 
369.2 
346.821 
336.16 
290.406 
332.107 
339.757 
320.456 
356.261 
343.156 
379.994 
349.565 
358.805 
359.312 
343.74 
367.34 
344.804 
361.478 
314.696 
336.851 
349.282 
352.618 
345.687 
383.521 
362.596 
354.65 
401.386 
326.087 
363.393 
369.043 
326.368 
379.641 
382.523 
363.685 
390.934 
346.664 
380.843 
384.468 
397.252 
360.782 
356.498 
367.923 
369.63 
387.719 
325.165 
365.578 
332.117 
408.303 
383.882 
364.527 
412.435 
393.251 
382.423 
360.134 
304.534 
375.626 
357.902 
345.647 
385.1 
352.483 
371.382 
334.644 
403.029 
324.225 
351.619 
366.682 
346.394 
303.733 
348.902 
386.177 
312.852 
341.54 
355.024 
342.931 
332.857 
396.99 
376.233 
358.72 
373.979 
366.675 
372.042 
334.28 
342.479 
347.507 
380.413 
352.868 
423.343 
332.357 
364.483 
356.607 
381.432 
394.822 
336.783 
416.038 
387.905 
395.284 
350.991 
346.279 
346.755 
347.38 
326.503 
346.743 
369.766 
360.591 
385.76 
355.971 
361.275 
360.809 
357.246 
396.911 
338.126 
360.092 
367.311 
382.319 
367.369 
362.133 
374.915 
377.655 
385.671 
384.182 
369.742 
401.583 
367.127 
346.32 
334.491 
322.291 
353.256 
379.45 
396.806 
331.643 
330.806 
359.645 
324.909 
377.345 
356.061 
377.849 
337.971 
334.287 
380.751 
359.438 
348.763 
330.815 
397.699 
382.325 
394.956 
370.682 
349.361 
339.504 
413.749 
342.137 
348.808 
382.859 
386.786 
348.135 
362.758 
358.8 
364.122 
361.94 
384.67 
429.785 
397.382 
386.045 
368.782 
411.728 
346.934 
335.706 
349.334 
334.091 
351.592 
391.567 
336.131 
359.86 
359.657 
352.512 
383.855 
391.118 
396.032 
363.655 
342.056 
359.956 
346.448 
379.595 
373.126 
375.279 
410.839 
379.533 
347.913 
409.32 
375.953 
352.545 
358.48 
370.878 
386.816 
384.346 
407.093 
383.562 
347.975 
359.111 
348.523 
393.007 
438.572 
427.643 
409.833 
397.205 
360.006 
370.806 
372.119 
368.648 
387.094 
377.283 
374.718 
400.133 
397.837 
396.35 
417.559 
355.353 
410.681 
387.836 
416.699 
408.299 
446.023 
387.085 
426.419 
393.882 
415.743 
399.278 
445.269 
363.907 
398.497 
367.208 
400.172 
429.324 
399.818 
411.837 
392.909 
399.967 
355.569 
406.606 
387.146 
416.094 
384.38 
374.587 
383.05 
412.731 
437.328 
405.877 
419.336 
446.131 
411.026 
382.87 
420.791 
376.142 
417.225 
417.981 
457.263 
383.961 
399.519 
407.899 
427.084 
422.192 
390.46 
404.08 
433.094 
396.324 
379.278 
390.035 
420.073 
395.752 
403.142 
353.334 
416.714 
416.762 
393.17 
438.995 
406.252 
380.95 
372.864 
453.168 
382.557 
398.506 
463.927 
420.166 
351.383 
429.23 
381.314 
393.81 
379.241 
407.5 
371.634 
392.714 
410.369 
359.966 
351.06 
373.469 
390.349 
433.441 
390.424 
416.267 
360.498 
414.787 
356.282 
425.057 
395.173 
394.997 
409.783 
388.192 
437.24 
416.528 
411.505 
415.92 
425.565 
383.233 
470.758 
434.183 
395.51 
372.659 
396.265 
397.923 
415.954 
348.143 
427.245 
423.059 
358.741 
382.935 
414.078 
401.509 
396.032 
401.221 
441.364 
427.931 
432.293 
435.155 
420.329 
344.399 
412.567 
392.283 
330.782 
427.43 
410.43 
385.307 
405.211 
425.132 
409.403 
447.788 
362.271 
460.329 
366.255 
438.61 
349.068 
386.065 
389.5 
393.19 
417.827 
444.498 
472.937 
477.495 
430.493 
343.944 
423.446 
413.063 
417.27 
415.787 
467.878 
466.943 
443.937 
425.607 
364.147 
455.787 
461.858 
413.665 
456.098 
442.357 
433.043 
411.469 
427.308 
384.729 
425.676 
446.996 
407.745 
380.114 
424.509 
408.29 
380.233 
397.563 
456.825 
447.74 
435.528 
397.87 
395.42 
438.126 
409.441 
402.884 
447.283 
449.748 
441.882 
392.677 
456.421 
403.322 
408.918 
406.016 
408.256 
432.563 
404.134 
427.915 
392.934 
445.237 
381.789 
429.125 
401.796 
460.268 
436.965 
431.872 
443.781 
396.463 
365.377 
399.338 
419.355 
407.409 
433.028 
430.15 
378.553 
450.835 
432.528 
408.285 
349.435 
343.733 
456.621 
439.253 
412.134 
433.776 
406.198 
398.224 
380.663 
435.652 
405.569 
367.72 
401.764 
423.323 
387.74 
448.924 
399.691 
431.007 
401.373 
400.581 
370.68 
417.457 
448.024 
380.604 
431.312 
419.757 
423.362 
462.021 
385.921 
428.818 
449.715 
462.785 
451.056 
481.68 
435.464 
424.795 
410.04 
453.42 
410.543 
446.902 
429.886 
445.913 
475.68 
444.354 
452.048 
456.786 
414.337 
421.752 
460.105 
433.23 
430.249 
441.973 
413.057 
510.372 
445.523 
440.469 
464.366 
471.423 
485.899 
411.459 
460.914 
443.802 
421.579 
404.721 
429.593 
433.673 
446.337 
398.557 
419.206 
408.484 
368.033 
439.216 
407.195 
399.442 
455.969 
362.187 
397.388 
513.957 
511.799 
439.59 
407.299 
422.91 
492.994 
430.691 
459.203 
470.697 
477.553 
436.594 
420.376 
465.054 
407.912 
372.416 
361.746 
449.852 
446.936 
430.348 
421.497 
472.968 
414.277 
426.843 
518.815 
388.71 
440.226 
460.8 
415.89 
414.305 
381.125 
482.606 
434.94 
503.873 
469.084 
408.866 
359.671 
416.326 
464.931 
411.154 
474.29 
429.327 
458.38 
401.308 
410.675 
396.474 
427.008 
495.235 
474.486 
407.26 
424.109 
443.888 
394.224 
425.242 
507.009 
367.131 
479.662 
427.836 
427.675 
421.424 
454.779 
398.284 
427.027 
440.063 
418.042 
392.524 
407.572 
349.682 
448.357 
431.321 
444.287 
410.554 
406.191 
399.168 
451.485 
425.934 
484.046 
386.939 
416.206 
441.202 
464.586 
406.335 
481.436 
485.373 
475.467 
441.2 
495.799 
471.271 
438.137 
471.522 
417.72 
404.278 
406.498 
417.447 
464.719 
415.23 
497.781 
466.88 
432.77 
429.761 
449.016 
424.83 
403.443 
532.149 
497.168 
418.452 
461.374 
439.656 
426.976 
539.899 
449.341 
467.825 
406.049 
434.966 
487.707 
524.04 
475.316 
412.644 
449.319 
503.31 
447.099 
416.652 
445.41 
498.575 
457.811 
484.068 
424.228 
462.717 
448.626 
441.512 
469.259 
534.619 
435.769 
430.812 
468.323 
493.472 
456.703 
401.153 
437.893 
426.653 
529.251 
490.979 
406.157 
482.191 
460.849 
451.826 
512.981 
464.27 
501.802 
511.986 
439.921 
450.681 
485.786 
442.535 
418.107 
395.023 
461.008 
417.805 
469.557 
424.412 
451.101 
474.088 
404.052 
439.457 
458.897 
412.555 
415.057 
455.145 
469.732 
486.492 
430.301 
464.737 
481.143 
427.854 
497.049 
484.18 
461.38 
419.658 
435.104 
411.061 
438.605 
458.388 
449.116 
510.64 
440.271 
403.676 
431.943 
446.135 
437.102 
439.138 
470.555 
450.714 
464.406 
517.368 
513.275 
436.797 
438.411 
463.921 
485.34 
512.166 
538.141 
476.933 
432.203 
515.536 
500.91 
493.27 
499.604 
512.652 
501.922 
469.092 
557.354 
479.158 
584.163 
551.924 
541.166 
538.895 
507.57 
441.013 
484.337 
471.21 
521.168 
599.558 
491.759 
582.107 
556.972 
446.525 
479.313 
453.883 
487.499 
529.163 
440.844 
477.548 
499.771 
488.252 
517.037 
500.305 
468.188 
489.81 
475.723 
417.36 
451.092 
455.122 
510.519 
468.589 
426.385 
459.636 
454.43 
506.558 
530.171 
509.83 
562.926 
468.089 
484.998 
493.259 
475.184 
419.778 
538.66 
540.493 
421.076 
390.48 
476.548 
473.932 
428.848 
555.529 
436.614 
483.421 
456.57 
507.958 
442.663 
436.795 
475.699 
477.648 
480.52 
486.287 
436.204 
393.976 
499.126 
474.475 
497.747 
431.966 
468.796 
426.878 
479.12 
475.123 
457.587 
494.601 
458.985 
476.198 
475.956 
451.153 
512.895 
532.33 
456.443 
403.837 
514.643 
462.266 
486.773 
480.65 
477.001 
533.028 
506.202 
520.599 
471.327 
507.923 
449.211 
501.735 
464.948 
499.51 
467.174 
475.184 
541.417 
414.019 
504.234 
469.785 
480.507 
409.509 
490.211 
567.339 
522.038 
532.141 
525.699 
463.797 
488.274 
434.923 
469.877 
534.648 
469.292 
488.474 
480.043 
507.491 
521.426 
413.709 
459.5 
494.604 
497.502 
460.203 
462.593 
519.286 
514.347 
536.363 
