ITEM: TIMESTEP
5800000
ITEM: NUMBER OF CELLS
1000
ITEM: BOX BOUNDS ss rr pp
0 0.004
0 0.01
-0.5 0.5
ITEM: CELLS f_temp1[*] 
305.602 
257.724 
272.067 
286.388 
281.692 
319.09 
294.569 
309.976 
299.578 
300.96 
301.372 
278.667 
302.53 
302.676 
288.149 
299.426 
275.751 
255.995 
280.315 
275.143 
296.251 
319.506 
320.768 
323.46 
334.44 
331.395 
297.566 
319.424 
282.954 
345.293 
310.014 
312.442 
272.518 
302.792 
304.744 
297.77 
301.555 
335.629 
293.063 
274.754 
312.405 
324.036 
305.372 
342.416 
324.865 
321.068 
310.448 
350.13 
282.365 
289.272 
293.591 
362.568 
321.184 
303.696 
374.055 
341.997 
331.521 
316.637 
334.377 
310.264 
281.174 
342.129 
319.584 
303.478 
302.648 
293.772 
332.27 
343.565 
316.633 
327.855 
357.313 
312.854 
318.3 
327.954 
323.459 
321.269 
320.165 
327.848 
294.327 
302.889 
338.999 
315.144 
285.666 
265.233 
324.3 
333.529 
325.721 
318.046 
313.15 
302.717 
330.9 
294.686 
326.29 
304.59 
320.082 
282.626 
331.192 
328.353 
350.916 
335.264 
336.937 
329.563 
305.614 
360.885 
338.328 
330.226 
336.019 
313.593 
330.656 
319.496 
326.313 
309.872 
279.223 
325.908 
306.357 
296.268 
316.278 
296.341 
280.174 
333.134 
317.189 
286.739 
317.173 
321.02 
299.231 
301.428 
296.603 
282.483 
277.547 
330.934 
312.368 
312.289 
301.623 
308.424 
316.778 
283.565 
314.878 
290.376 
294.417 
285.385 
283.316 
309.646 
310.346 
296.462 
326.618 
255.794 
301.859 
321.274 
327.008 
319.076 
330.046 
345.025 
312.516 
326.014 
332.989 
348.811 
339.341 
355.687 
329.205 
347.105 
355.211 
332.699 
393.555 
335.496 
333.527 
388.019 
348.744 
316.891 
356.795 
299.704 
313.389 
294.731 
327.507 
350.258 
313.026 
328.857 
322.922 
293.27 
313.722 
326.891 
352.882 
307.041 
286.73 
350.592 
340.818 
368.66 
352.539 
367.74 
308.873 
383.396 
341.486 
317.592 
337.736 
345.001 
309.195 
336.066 
331.794 
352.486 
347.355 
362.565 
367.88 
361.6 
355.851 
344.706 
348.38 
374.445 
385.062 
357.037 
351.897 
373.842 
327.207 
367.028 
356.145 
369.308 
365.417 
324.548 
409.559 
350.366 
386.987 
353.749 
331.377 
354.054 
357.427 
390.264 
388.97 
413.458 
356.74 
375.666 
342.351 
383.711 
325.147 
351.414 
362.903 
319.521 
365.918 
349.774 
347.658 
330.231 
348.327 
385.072 
365.785 
324.439 
325.986 
357.294 
363.963 
342.97 
374.728 
358.676 
380.36 
378.028 
356.784 
339.579 
358.287 
360.631 
346.761 
384.463 
340.515 
347.02 
350.615 
339.564 
334.286 
362.532 
353.594 
351.428 
374.236 
355.357 
336.597 
379.828 
347.883 
367.576 
345.72 
354.103 
359.536 
368.838 
332.219 
336.81 
385.81 
370.232 
315.033 
359.535 
339.965 
350.91 
358.468 
370.586 
366.701 
365.634 
349.377 
329.838 
351.776 
372.818 
348.705 
379.427 
367.347 
385.212 
339.644 
349.855 
329.583 
351.126 
340.404 
339.052 
379.634 
361.447 
391.383 
395.941 
347.992 
356.238 
413.195 
392.681 
386.997 
396.861 
368.877 
380.133 
362.339 
373 
397.818 
374.672 
357.203 
395.427 
383.528 
410.532 
381.276 
338.267 
381.315 
397.03 
331.333 
376.787 
344.216 
320.286 
352.186 
320.981 
353.449 
350.195 
360.146 
349.649 
370.741 
354.851 
404.513 
388.394 
374.056 
420.138 
413.523 
384.644 
415.298 
412.063 
371.796 
474.939 
418.197 
441.27 
407.453 
400.689 
486.757 
376.664 
411.509 
404.911 
354.345 
459.424 
353.65 
377.697 
365.241 
396.047 
380.339 
430.075 
365.28 
397.07 
391.995 
428.253 
397.169 
393.194 
435.893 
381.328 
415.628 
449.59 
409.647 
369.336 
407.973 
407.383 
489.363 
401.743 
370.344 
363.086 
414.15 
416.691 
429.853 
414.266 
354.152 
388.311 
385.154 
401.735 
368.641 
347.648 
397.325 
403.193 
385.25 
388.546 
381.202 
314.315 
371.763 
370.534 
400.071 
399.401 
399.805 
347.087 
413.185 
428.804 
415.646 
366.615 
372.417 
396.701 
374.955 
410.442 
391.722 
411.484 
406.262 
369.28 
386.691 
388.508 
390.373 
387.866 
433.358 
447.155 
436.093 
361.701 
396.972 
369.186 
397.609 
395.362 
470.195 
442.211 
394.866 
380.332 
398.225 
438.214 
457.959 
356.674 
402.68 
408.885 
417.075 
425.112 
386.189 
409.817 
462.982 
437.074 
452.804 
435.536 
447.272 
395.72 
376.748 
443.018 
356.102 
419.724 
402.862 
385.954 
362.043 
389.751 
426.876 
420.061 
369.308 
369.968 
456.48 
400.392 
419.896 
411.114 
385.574 
364.515 
371.889 
450.591 
401.536 
402.674 
440.282 
421.856 
369.653 
483.278 
443.51 
421.724 
396.105 
408.927 
418.012 
361.59 
394.509 
430.246 
431.938 
401.402 
409.758 
431.502 
369.388 
405.03 
404.555 
413.512 
455.444 
417.531 
403.586 
439.142 
432.852 
460.289 
436.438 
434.421 
421.111 
418.458 
439.046 
394.428 
408.099 
421.118 
452.741 
391.489 
419.89 
380.808 
378.214 
401.027 
382.431 
408.636 
363.655 
409.693 
433.517 
455.591 
425.979 
386.63 
435.257 
389.96 
383.941 
411.317 
405.681 
418.894 
418.292 
448.293 
394.176 
410.831 
358.621 
411.57 
414.684 
431.869 
409.685 
394.167 
400.124 
430.387 
398.81 
383.619 
381.386 
403.458 
388.51 
409.308 
408.832 
407.157 
399.872 
436.842 
344.754 
402.748 
398 
416.253 
424.76 
409.551 
388.877 
416.687 
390.95 
443.156 
426.493 
417.564 
426.803 
415.593 
427.026 
404.48 
391.105 
405.849 
394.877 
425.904 
398.432 
417.167 
406.034 
377.169 
392.811 
415.087 
426.127 
414.401 
409.695 
436.294 
465.054 
497.197 
436.822 
448.022 
389.471 
410.244 
407.329 
412.522 
359.705 
515.487 
399.023 
449.912 
424.427 
434.519 
438.081 
431.669 
410.483 
433.103 
410.258 
390.81 
406.324 
429.188 
403.525 
388.73 
434.101 
477.113 
459.649 
513.87 
439.669 
423.972 
383.277 
402.163 
438.482 
431.913 
472.405 
505.789 
378.504 
409.176 
498.686 
413.06 
436.024 
412.407 
492.966 
521.341 
404.563 
423.219 
434.345 
407.791 
460.008 
461.183 
449.389 
433.174 
516.644 
473.362 
474.291 
460.062 
491.106 
445.28 
481.985 
422.585 
451.086 
438.668 
473.049 
469.111 
454.735 
467.039 
479.206 
457.299 
472.016 
421.088 
399.687 
454.449 
470.812 
417.252 
504.167 
426.615 
464.331 
401.312 
401.942 
373.478 
386.92 
483.588 
477.81 
424.607 
433.872 
476.846 
418.459 
515.333 
446.018 
428.54 
425.305 
485.101 
493.85 
500.822 
429.088 
422.39 
467.234 
551.509 
519.12 
489.807 
424.832 
470.189 
493.565 
474.9 
472.878 
522.412 
416.5 
442.099 
499.134 
507.031 
467.272 
439.218 
531.89 
486.009 
449.925 
481.288 
488.167 
499.333 
455.802 
526.661 
434.571 
465.265 
464.836 
450.397 
486.288 
485.599 
533.784 
434.787 
508.441 
493.206 
446.003 
497.36 
440.378 
463.162 
497.957 
476.431 
448.54 
469.57 
469.305 
460.496 
510.972 
457.988 
530.665 
476.304 
487.299 
485.21 
497.478 
465.856 
459.94 
480.728 
473.999 
481.927 
443.06 
436.689 
483.244 
466.108 
499.342 
478.407 
456.967 
483.751 
507.103 
470.862 
439.275 
448.898 
430.206 
517.171 
463.359 
416.502 
509.969 
386.373 
419.348 
509.122 
463.418 
422.394 
411.295 
462.999 
461.28 
430.13 
497.658 
450.504 
527.644 
452.257 
474.972 
460.649 
446.412 
463.73 
488.039 
404.607 
415.795 
425.833 
450.674 
518.966 
432.982 
453.656 
434.472 
431.105 
437.513 
455.176 
431.815 
419.273 
395.743 
452.226 
453.404 
448.065 
421.132 
474.043 
474.157 
527.099 
429.326 
531.222 
452.954 
453.591 
519.644 
442.78 
419.143 
442.1 
448.297 
463.558 
437.324 
401.651 
489.368 
426.09 
453.979 
459.665 
467.503 
458.163 
468.685 
439.816 
435.593 
418.066 
464.034 
452.817 
472.779 
506.456 
435.937 
443.523 
458.628 
393.567 
498.303 
502.565 
475.551 
483.362 
462.042 
471.451 
488.685 
421.999 
405.989 
390.326 
393.415 
464.107 
455.121 
501.069 
435.643 
463.932 
488.627 
498.348 
494.243 
451.29 
462.834 
445.421 
523.631 
493.392 
442.772 
461.61 
423.138 
455.158 
497.244 
424.081 
492.504 
443.762 
480.03 
464.569 
508.774 
440.322 
432.089 
486.518 
493.237 
453.962 
449.729 
464.519 
454.762 
474.885 
456.093 
461.181 
427.14 
464.028 
444.596 
423.428 
543.872 
488.72 
467.432 
499.417 
453.154 
519.881 
526.459 
504.899 
431.173 
475.939 
541.855 
475.489 
510.664 
491.128 
490.931 
473.545 
477.297 
494.266 
469.676 
522.271 
559.82 
472.598 
452.944 
484.992 
525.579 
470.349 
474.884 
562.697 
522.705 
474.648 
438.62 
474.152 
504.829 
537.308 
437.796 
534.012 
502.93 
495.487 
481.031 
514.634 
472.858 
540.584 
482.581 
472.129 
447.565 
494.086 
520.995 
485.294 
552.161 
503.97 
468.491 
494.332 
429.089 
472.75 
473.084 
442.289 
498.664 
424.096 
469.029 
431.358 
431.189 
450.078 
481.987 
518.849 
541.602 
546.1 
547.299 
520.248 
523.107 
501.596 
507.576 
448.245 
481.444 
442.296 
501.217 
462.525 
541.332 
536.633 
437.572 
440.649 
436.842 
545.779 
526.777 
545.244 
521.463 
562.932 
527.92 
579.535 
547.003 
478.406 
493.706 
557.24 
454.867 
545.702 
496.315 
503.355 
520.969 
488.066 
406.987 
440.604 
473.259 
510.733 
503.868 
496.385 
539.369 
551.051 
520.27 
490.779 
466.391 
512.71 
516.495 
517.013 
484.121 
488.239 
489.738 
477.974 
452.904 
558.762 
503.536 
480.813 
487.258 
455.584 
482.941 
465.455 
482.438 
510.883 
507.418 
530.727 
469.43 
546.817 
492.884 
514.651 
467.499 
433.242 
462.224 
542.402 
441.178 
516.409 
