ITEM: TIMESTEP
5400000
ITEM: NUMBER OF CELLS
1000
ITEM: BOX BOUNDS ss rr pp
0 0.004
0 0.01
-0.5 0.5
ITEM: CELLS f_temp1[*] 
325.107 
309.576 
276.081 
358.782 
300.394 
322.537 
301.615 
344.027 
329.646 
280.441 
318.912 
300.753 
344.767 
357.472 
329.522 
305.531 
329.324 
310.789 
287.203 
364.605 
293.486 
335.493 
288.865 
303.895 
300.127 
312.755 
276.122 
302.852 
293.068 
281.425 
296.331 
335.085 
319.19 
285.001 
299.353 
308.238 
282.855 
305.567 
306.375 
341.441 
314.858 
306.672 
273.421 
313.926 
313.488 
345.54 
324.128 
305.938 
320.041 
319.418 
309.343 
339.036 
340.702 
318.542 
303.919 
303.597 
335.648 
329.647 
306.378 
322.811 
306.49 
323.673 
325.473 
325.817 
340.839 
269.72 
337.057 
324.023 
297.318 
324.489 
337.846 
296.898 
320.342 
302.945 
273.224 
315.448 
282.735 
296.752 
290.11 
323.009 
289.168 
316.621 
293.093 
309.411 
290.072 
301.844 
331.303 
314.351 
295.446 
289.217 
298.007 
330.964 
336.721 
326.125 
324.227 
318.13 
333.821 
333.737 
325.588 
303.806 
338.063 
318.534 
313.734 
345.283 
313.124 
326.675 
312.337 
329.459 
310.959 
297.442 
279.906 
328.261 
360.636 
347.407 
319.088 
354.335 
336.973 
324.709 
343.501 
321.637 
311.74 
325.561 
358.336 
331.316 
309.111 
316.418 
345.414 
328.018 
309.658 
335.582 
322.293 
319.443 
290.773 
330.932 
335.384 
342.129 
365.818 
299.214 
328.654 
314.753 
359.675 
347.43 
370.037 
334.808 
354.185 
313.943 
366.209 
343.856 
380.148 
328.84 
346.155 
339.52 
305.419 
344.721 
329.484 
260.057 
335.823 
332.293 
310.111 
344.015 
331.69 
330.934 
314.41 
303.929 
373.582 
310.068 
330.089 
333.463 
309.034 
337.918 
354.602 
297.382 
307.944 
321.792 
321.784 
320.638 
321.472 
324.914 
353.027 
349.463 
317.171 
320.258 
318.527 
341.966 
360.537 
333.098 
344.802 
335.633 
318.329 
385.164 
328.09 
300.63 
318.72 
327.922 
357.578 
379.987 
352.963 
380.046 
354.78 
375.818 
319.731 
343.679 
353.069 
346.8 
421.804 
311.004 
343.518 
353.72 
310.625 
300.715 
375.063 
359.556 
381.02 
355.092 
344.561 
338.222 
345.163 
371.081 
344.554 
337.523 
344.319 
398.22 
350.942 
400.878 
377.127 
386.131 
333.096 
362.308 
317.273 
378.565 
320.955 
341.318 
351.077 
399.272 
338.721 
349.163 
330.857 
356.511 
340.627 
402.6 
352.406 
352.317 
412.129 
380.982 
350.304 
358.679 
410.598 
353.424 
376.754 
394.256 
360.351 
381.23 
340.536 
375.902 
379.998 
376.381 
368.233 
337.224 
381.085 
358.166 
373.828 
400.22 
387.811 
351.896 
422.236 
371.257 
383.918 
341.786 
366.444 
324.094 
345.722 
316.266 
352.646 
366.419 
352.12 
347.226 
385.997 
355.684 
355.326 
355.88 
308.458 
341.335 
345.799 
340.802 
367.299 
388.995 
380.569 
378.415 
375.493 
370.842 
365.578 
383.41 
313.515 
359.069 
390.422 
355.09 
369.654 
320.413 
407.393 
397.137 
373.238 
406.962 
394.439 
347.482 
385.552 
348.961 
336.539 
331.737 
372.47 
349.049 
321.864 
374.342 
328.378 
370.677 
372.681 
390.3 
364.691 
357.374 
368.006 
355.827 
389.074 
337.917 
383.855 
354.177 
348.508 
368.337 
335.68 
408.831 
360.871 
342.974 
365.912 
384.954 
366.846 
351.957 
366.191 
389.942 
365.895 
368.46 
419.341 
425.567 
361.83 
371.328 
396.74 
369.816 
376.609 
438.42 
381.315 
383.626 
401.615 
451.813 
375.981 
371.931 
379.226 
396.383 
367.162 
368.365 
389.829 
397.865 
391.645 
376.741 
421.442 
390.065 
425.851 
407.045 
344.803 
403.447 
429.592 
399.307 
374.71 
403.681 
416.155 
417.017 
396.438 
405.143 
374.073 
398.647 
363.081 
424.31 
409.214 
397.258 
488.684 
409.479 
437.436 
412.264 
426.855 
407.893 
342.021 
391.851 
356.697 
410.257 
370.716 
402.545 
426.053 
398.831 
411.807 
384.26 
383.058 
391.77 
375.963 
439.191 
411.118 
419.015 
384.387 
381.257 
374.782 
393.222 
390.613 
386.86 
347.345 
358.004 
398.547 
381.671 
390.518 
360.636 
407.05 
391.674 
375.519 
420.448 
331.578 
373.36 
366.57 
399.636 
369.224 
422.037 
405.981 
369.744 
413.431 
457.575 
367.009 
390.842 
408.352 
418.592 
393.932 
390.693 
449.757 
411.087 
423.128 
441.743 
406.095 
412.394 
435.111 
402.962 
402.58 
402.68 
395.59 
417.502 
429.401 
386.515 
405.933 
402.769 
417.994 
426.712 
368.448 
389.323 
451.708 
420.208 
405.847 
368.126 
365.959 
403.345 
431.788 
401.076 
417.479 
473.909 
398.35 
398.472 
456.729 
420.11 
380.952 
430.07 
441.058 
381.173 
483.81 
413.43 
373.588 
393.391 
447.465 
372.613 
409.711 
428.262 
407.255 
419.132 
376.225 
464.179 
422.766 
435.316 
433.913 
412.554 
454.74 
439.057 
403.814 
446.096 
485.657 
446.441 
473.175 
414.869 
374.214 
472.961 
436.799 
392.772 
420.218 
404.562 
427.156 
412.976 
490.472 
472.52 
377.315 
370.269 
453.956 
419.996 
374.375 
406.487 
390.13 
406.677 
430.529 
382.391 
417.589 
353.015 
367.431 
410.396 
386.319 
383.256 
373.2 
420.816 
352.737 
387.206 
383.825 
409.407 
386.516 
451.594 
416.845 
387.17 
436.692 
413.123 
437.657 
454.86 
506.959 
411.25 
395.812 
347.846 
388.825 
385.065 
381.691 
363.666 
422.682 
391.57 
415.581 
439.529 
464.61 
436.437 
430.706 
388.392 
361.14 
406.265 
414.758 
384.123 
414.682 
418.361 
403.867 
461.364 
401.801 
388.381 
417.194 
434.473 
453.907 
420.522 
407.506 
404.946 
410.793 
342.779 
373.083 
432.659 
364.784 
390.679 
418.042 
387.851 
343.143 
420.042 
379.928 
404.439 
434.526 
405.514 
384.671 
435.139 
428.308 
407.413 
398.755 
389.416 
411.657 
389.776 
409.972 
389.715 
434.862 
404.643 
392.906 
398.973 
351.137 
380.858 
399.039 
411.663 
400.975 
402.377 
401.335 
418.53 
447.947 
414.551 
421.281 
391.167 
375.055 
418.326 
384.743 
437.443 
387.722 
378.361 
431.601 
423.939 
361.833 
388.777 
447.999 
394.006 
428.757 
415.974 
412.732 
403.656 
376.042 
449.404 
453.736 
453.288 
395.644 
399.86 
427.68 
447.762 
396.629 
483.64 
389.517 
411.589 
398.513 
441.179 
474.256 
424.629 
405.651 
423.902 
456 
458.596 
425.543 
444.675 
427.187 
394.152 
423.442 
441.592 
475.183 
456.312 
451.706 
419.758 
395.697 
397.394 
419.386 
437.79 
446.673 
442.468 
397.466 
381.991 
440.495 
464.925 
403.607 
381.42 
437.605 
410.47 
426.416 
394.895 
388.726 
397.64 
429.62 
383.279 
443.826 
406.061 
423.813 
443.597 
458.88 
445.069 
454.187 
441.396 
507.027 
437.21 
463.899 
456.535 
395.408 
456.042 
488.868 
452.825 
418.192 
478.416 
441.117 
451.977 
504.167 
420.089 
449.043 
496.708 
428.738 
432.079 
451.896 
495.046 
439.705 
491.752 
450.144 
471.022 
386.025 
459.187 
458.418 
470.2 
428.747 
367.267 
427.975 
465.181 
450.395 
471.168 
491.597 
411.159 
419.024 
441.004 
477.965 
460.469 
466.232 
412.602 
471.46 
445.974 
446.179 
427.524 
430.082 
462.965 
488.017 
463.871 
450.778 
458.812 
433.429 
450.117 
428.785 
375.935 
471.007 
468.572 
427.394 
409.619 
470.496 
448.38 
440.377 
474.002 
470.829 
420.753 
486.325 
421.261 
433.056 
488.595 
444.602 
464.253 
525.822 
408.03 
454.945 
415.501 
428.849 
527.452 
527.695 
471.341 
447.595 
465.297 
500.379 
557.792 
457.202 
481.536 
528.129 
475.988 
461.905 
559.631 
482.521 
454.172 
436.041 
425.27 
465.048 
456.857 
484.028 
438.423 
442.715 
477.115 
394.765 
505.399 
470.628 
438.864 
541.35 
496.205 
450.563 
481.226 
476.974 
493.806 
491.526 
422.015 
449.839 
459.251 
434.184 
521.953 
441.798 
447.544 
384.641 
458.77 
520.569 
492.897 
438.561 
399.591 
398.401 
444.922 
469.319 
547.293 
408.587 
521.083 
491.302 
458.978 
473.642 
494.625 
429.419 
470.421 
453.209 
463.226 
461.688 
460.866 
370.726 
510.83 
482.728 
471.162 
512.326 
507.355 
521.167 
533.006 
475.612 
458.354 
525.292 
491.98 
472.247 
492.107 
560.646 
438.783 
455.97 
519.631 
517.497 
518.807 
543.677 
455.474 
518.441 
514.572 
475.587 
464.864 
499.605 
411.115 
456.562 
431.94 
445.538 
413.176 
476.294 
433.02 
459.653 
408.713 
435.534 
427.034 
443.829 
467.378 
505.901 
428.838 
513.217 
508.762 
457.287 
501.083 
491.013 
537.109 
419.524 
405.189 
402.477 
513.828 
494.813 
529.31 
501.085 
464.283 
447.161 
563.619 
483.122 
515.114 
445.609 
441.006 
524.313 
510.012 
475.165 
502.25 
463.584 
522.31 
562.89 
499.163 
526.973 
445.012 
493.224 
519.575 
468.845 
518.629 
513.849 
519.932 
400.982 
542.098 
485.695 
475.945 
479.563 
474.097 
452.506 
436.946 
495.42 
476.773 
491.035 
504.849 
556.703 
481.801 
496.755 
494.964 
524.031 
505.012 
435.176 
474.974 
463.733 
473.177 
526.985 
484.923 
409.673 
455.342 
423.557 
477.732 
486.718 
510.754 
526.197 
489.616 
471.431 
445.466 
502.687 
452.94 
464.752 
419.816 
472.249 
545.48 
428.104 
497.575 
494.375 
451.691 
479.261 
492.332 
454.676 
484.308 
463.587 
457.166 
470.546 
481.662 
479.19 
457.579 
423.637 
459.825 
487.991 
478.065 
498.613 
471.023 
516.834 
511.381 
536.943 
436.34 
521.603 
461.161 
478.555 
454.844 
442.039 
467.671 
444.401 
518.514 
495.919 
445.552 
446.091 
519.67 
452.842 
473.107 
428.452 
477.678 
500.226 
546.124 
530.252 
471.093 
479.298 
510.771 
480.564 
561.764 
515.601 
566.437 
556.39 
522.692 
502.858 
504.939 
424.745 
552.407 
421.737 
526.747 
580.227 
512.844 
