ITEM: TIMESTEP
3200000
ITEM: NUMBER OF CELLS
1000
ITEM: BOX BOUNDS ss rr pp
0 0.004
0 0.01
-0.5 0.5
ITEM: CELLS f_temp1[*] 
280.949 
297.429 
276.818 
298.352 
305.754 
302.691 
289.788 
290.869 
311.241 
288.5 
300.506 
289.866 
300.237 
260.663 
327.693 
286.224 
288.683 
320.229 
318.836 
300.029 
321.869 
357.175 
318.417 
313.633 
313.387 
330.448 
311.621 
308.199 
311.184 
290.192 
293.462 
325.52 
323.72 
306.096 
287.075 
283.775 
291.733 
292.218 
266.853 
290.21 
304.164 
299.635 
299.896 
310.277 
338.535 
309.624 
300.456 
324.355 
299.359 
342.574 
328.895 
327.946 
325.716 
335.564 
289.429 
317.933 
325.445 
302.116 
318.92 
363.543 
342.723 
312.032 
347.982 
302.889 
315.721 
342.407 
299.642 
340.849 
311.663 
297.193 
327.132 
352.396 
351.864 
334.823 
327.627 
321.502 
324.984 
289.238 
315.203 
290.635 
313.179 
338.597 
318.765 
319.323 
309.312 
316.675 
327.068 
341.339 
281.506 
351.324 
318.553 
315.75 
321.702 
329.994 
311.897 
323.152 
303.855 
311.63 
295.716 
306.2 
293.835 
306.336 
306.741 
329.321 
309.527 
291.338 
333.853 
332.242 
281.746 
287.493 
374.734 
317.719 
328.847 
353.515 
372.144 
341.815 
337.36 
362.491 
344.097 
340.302 
352.454 
321.907 
327.477 
324.834 
353.439 
321.494 
347.386 
315.422 
307.241 
343.291 
321.19 
327.904 
345.701 
361.281 
319.502 
347.275 
337.256 
321.12 
344.608 
360.25 
348.317 
338.759 
327.371 
370.891 
315.087 
346.775 
320.615 
305.484 
317.487 
346.332 
300.776 
334.422 
341.359 
303.76 
338.835 
331.842 
328.294 
303.544 
324.674 
325.226 
292.546 
295.426 
320.793 
342.378 
327.148 
316.623 
325.837 
324.002 
342.841 
344.406 
349.479 
384.275 
296.999 
347.633 
333.973 
348.647 
333.369 
292.165 
319.347 
362.665 
364.09 
335.407 
315.932 
348.804 
387.453 
378.246 
327.65 
347.188 
342.205 
354.184 
324.349 
336.429 
365.096 
335.262 
325.7 
303.798 
358.942 
347.748 
363.501 
360.258 
392.034 
360.693 
384.392 
322.15 
345.642 
334.387 
329.093 
337.491 
324.338 
384.226 
351.37 
324.23 
333.114 
386.104 
347.32 
337.164 
368.656 
371.503 
325.838 
367.498 
366.803 
347.213 
340.84 
343.665 
369.366 
318.176 
356.564 
347.414 
314.163 
352.568 
351.545 
332.87 
320.28 
360.499 
356.808 
341.896 
379.95 
326.107 
393.284 
349.939 
345.687 
362.517 
326.231 
335.965 
413.353 
338.794 
341.883 
331.262 
348.164 
364.309 
395.378 
350.609 
419.609 
337.788 
437.309 
406.342 
394.389 
363.912 
379.584 
380.957 
406.6 
381.138 
341.112 
382.528 
413.49 
358.486 
359.96 
394.046 
403.267 
388.107 
383.351 
383.169 
355.269 
366.948 
365.03 
402.825 
427.845 
424.665 
416.028 
431.511 
357.677 
387.032 
360.111 
390.838 
362.441 
384.012 
348.498 
421.52 
371.238 
390.457 
376.911 
363.582 
362.855 
360.298 
384.337 
421.248 
343.453 
385.182 
348.028 
349.303 
322.936 
384.368 
359.201 
376.602 
382.417 
369.12 
376.601 
379.324 
347.262 
365.87 
355.308 
419.39 
350.681 
378.875 
367.214 
425.015 
411.702 
379.407 
391.025 
377.561 
358.903 
365.905 
383.563 
378.789 
338.675 
334.747 
362.072 
380.209 
365.407 
339.96 
375.145 
386.739 
382.642 
357.096 
353.741 
370.853 
359.114 
337.177 
340.763 
393.812 
373.848 
411.078 
378.813 
394.621 
388.965 
407.403 
389.207 
422.959 
435.405 
393.276 
445.957 
416.91 
360.678 
372.023 
373.892 
330.598 
352.781 
375.23 
379.144 
410.73 
394.039 
419.365 
394.549 
423.413 
349.876 
395.831 
408.105 
384.594 
388.411 
366.339 
394.468 
406.706 
359.674 
352.267 
420.833 
450.181 
377.905 
392.08 
372.336 
399.918 
424.765 
394.016 
404.106 
405.006 
396.783 
405.598 
375.617 
358.474 
382.533 
392.881 
391.584 
364.232 
430.148 
396.346 
378.236 
379.78 
368.258 
379.532 
358.679 
388.466 
367.925 
407.257 
400.867 
391.419 
379.118 
397.195 
380.666 
363.614 
336.051 
393.263 
354.729 
360.748 
340.87 
355.347 
361.868 
349.323 
416.556 
421.452 
394.036 
408.154 
357.239 
385.308 
381.593 
383.08 
381.852 
367.893 
385.438 
389.151 
400.335 
382.422 
388.183 
398.153 
425.19 
419.449 
441.384 
406.999 
415.22 
396.97 
349.525 
429.176 
436.512 
401.296 
374.474 
407.109 
424.868 
368.869 
365.438 
358.792 
402.21 
400.722 
443.279 
434.677 
414.718 
406.642 
389.067 
411.074 
382.734 
405.715 
451.471 
411.105 
469.108 
415.303 
433.471 
316.993 
439.921 
428.296 
386.411 
432.255 
430.176 
402.364 
413.853 
373.57 
441.937 
416.969 
464.826 
411.27 
422.177 
443.236 
405.372 
433.991 
417.696 
432.938 
460.985 
432.716 
392.557 
413.94 
451.576 
456.164 
452.048 
464.22 
468.733 
414.965 
428.683 
370.12 
407.576 
395.283 
424.153 
387.761 
404.724 
397.007 
384.803 
488.029 
395.419 
393.526 
449.064 
398.38 
406.614 
441.813 
393.469 
470.427 
405.176 
420.77 
426.869 
438.097 
368.003 
436.981 
403.933 
417.395 
474.077 
414.385 
429.448 
436.777 
422.583 
408.102 
415.961 
406.579 
354.232 
374.703 
406.145 
406.688 
416.857 
415.628 
403.395 
398.34 
446.151 
386.288 
382.029 
424.494 
396.29 
464.675 
417.17 
384.849 
404.66 
427.081 
365.652 
438.699 
390.99 
414.474 
353.904 
436.779 
429.529 
425.942 
410.056 
408.104 
423.295 
411.758 
425.34 
462.674 
357.607 
450.449 
382.244 
432.715 
427.589 
417.057 
435.983 
372.758 
404.619 
411.586 
477.351 
440.512 
390.931 
441.785 
465.972 
418.186 
425.888 
408.534 
395.13 
442.271 
431.195 
455.756 
426.109 
414.167 
393.098 
390.68 
442.295 
439.208 
447.941 
468.061 
421.472 
372.862 
475.244 
409.555 
444.835 
371.51 
465.762 
411.331 
442.2 
499.768 
398.198 
474.359 
459.243 
468.158 
446.558 
446.395 
384.892 
480.849 
436.41 
398.2 
532.266 
436.931 
373.193 
439.502 
399.017 
445.528 
436.86 
457.929 
413.705 
427.993 
436.268 
463.24 
426.97 
443.381 
362.046 
446.253 
379.02 
440.319 
425.618 
435.014 
370.66 
380.168 
357.719 
445.739 
421.477 
437.962 
413.432 
415.283 
414.246 
388.21 
362.25 
375.512 
406.001 
458.629 
414.871 
397.691 
428.295 
442.3 
430.679 
439.803 
392.475 
419.33 
442.616 
454.778 
404.95 
442.704 
446.639 
393.137 
391.685 
441.181 
387.723 
424.247 
380.64 
447.863 
420.067 
376.04 
460.507 
409.207 
379.206 
459.418 
393.118 
409.932 
427.271 
458.758 
435.652 
440.455 
459.294 
489.171 
430.511 
448.951 
462.678 
458.508 
463.696 
384.319 
423.668 
480.147 
477.106 
470.267 
436.421 
364.156 
408.779 
418.223 
401.461 
435.913 
397.855 
390.676 
405.748 
404.222 
421.454 
433.585 
396.072 
457.58 
439.281 
441.776 
382.097 
450.402 
450.139 
480.025 
401.693 
485.501 
461.203 
438.583 
516.243 
439.731 
515.374 
542.183 
493.024 
499.223 
480.067 
488.756 
426.302 
436.112 
526.058 
455.128 
489.931 
444.923 
464.649 
509.836 
488.842 
451.328 
506.194 
457.82 
403.72 
490.159 
472.143 
485.031 
404.653 
502.824 
555.622 
469.243 
464.686 
482.18 
493.009 
512.682 
462.045 
522.785 
412.682 
471.17 
409.612 
491.625 
427.802 
464.894 
444.186 
432.815 
484.455 
451.503 
462.813 
380.884 
440.713 
422.323 
404.557 
423.75 
464.069 
435.169 
441.712 
402.968 
435.584 
435.256 
448.75 
461.362 
434.673 
385.38 
433.144 
415.861 
435.036 
498.958 
464.335 
413.903 
448.221 
414.068 
385.061 
453.23 
380.083 
481.694 
410.838 
419.987 
452.339 
463.079 
414.32 
403.696 
508.636 
424.448 
455.063 
434.501 
461.436 
438.773 
440.688 
491.446 
448.895 
425.328 
423.053 
441.296 
410.169 
415.568 
423.605 
428.696 
410.216 
423.297 
458.289 
410.33 
469.953 
472.671 
481.085 
498.067 
424.096 
500.348 
475.231 
486.365 
423.691 
407.109 
424.857 
491.223 
374.578 
464.06 
463.946 
441.292 
475.589 
473.373 
509.42 
445.627 
485.983 
420.461 
442.295 
491.554 
383.001 
418.865 
415.993 
451.021 
493.504 
492.784 
393.964 
539.089 
432.942 
442.885 
510 
513.419 
483.356 
439.031 
421.733 
422.719 
438.339 
454.44 
483.07 
427.114 
442.53 
483.094 
492.6 
452.487 
492.764 
461.597 
456.841 
491.267 
517.474 
469.001 
486.183 
462.345 
466.123 
451.197 
431.055 
386.314 
464.681 
580.775 
420.61 
467.085 
563.254 
458.477 
433.713 
564.016 
469.396 
469.699 
464.543 
459.579 
480.447 
500.864 
507.59 
415.904 
469.572 
415.869 
435.197 
434.853 
435.858 
492.13 
490.683 
429.114 
451.33 
412.129 
488.962 
469.146 
469.99 
460.276 
472.627 
497.274 
466.636 
471.33 
462.234 
453.274 
498.847 
519.841 
506.416 
404.486 
484.181 
459.937 
473.545 
464.269 
444.151 
406.115 
447.469 
452.764 
486.388 
477.655 
484.764 
472.552 
456.927 
496.048 
543.767 
410.247 
483.831 
481.076 
448.641 
500.623 
470.495 
428.347 
448.575 
466.157 
498.632 
434.279 
448.45 
443.575 
452.809 
464.734 
495.61 
554.744 
500.203 
509.998 
460.339 
484.12 
392.088 
417.515 
482.089 
445.439 
572.392 
475.453 
521.201 
475.86 
454.232 
472.635 
555.269 
492.994 
506.779 
512.856 
488.004 
530.034 
500.296 
497.854 
537.159 
472.423 
424.994 
502.371 
438.548 
511.007 
538.422 
482.67 
537.419 
489.2 
455.764 
487.691 
491.78 
455.929 
469.699 
456.826 
406.391 
492.276 
553.55 
497.78 
461.854 
479.036 
495.778 
410.354 
464.597 
474.495 
475.134 
520.906 
515.179 
489.965 
433.425 
510.668 
485.301 
403.925 
607.748 
490.481 
491.403 
493.715 
