ITEM: TIMESTEP
3000000
ITEM: NUMBER OF CELLS
1000
ITEM: BOX BOUNDS ss rr pp
0 0.004
0 0.01
-0.5 0.5
ITEM: CELLS f_temp1[*] 
266.913 
319.334 
298.974 
289.817 
267.255 
309.869 
298.107 
298.287 
305.459 
299.614 
358.032 
268.071 
334.938 
310.811 
301.442 
315.942 
325.096 
280.783 
297.191 
281.801 
302.028 
285.621 
314.757 
276.774 
279.821 
292.681 
319.648 
302.165 
330.936 
281.204 
298.221 
301.564 
279.356 
284.274 
335.78 
287.542 
331.327 
346.233 
316.806 
328.786 
285.763 
306.825 
313.179 
298.07 
361.722 
337.252 
357.351 
275.57 
293.702 
331.35 
325.343 
299.935 
312.881 
319.594 
303.259 
308.168 
313.429 
306.456 
315.545 
282.807 
341.892 
319.725 
310.756 
360.838 
357.672 
333.296 
322.756 
345.809 
289.489 
303.303 
330.197 
334.06 
310.886 
316.981 
391.711 
321.532 
326.076 
330.606 
330.88 
348.304 
341.074 
349.328 
330.438 
337.939 
336.968 
306.799 
333.198 
326.626 
309.436 
366.186 
306.897 
311.078 
332.052 
302.092 
296.37 
304.485 
316.778 
284.836 
316.862 
319.38 
341.226 
354.789 
285.485 
312.41 
312.841 
318.069 
317.648 
330.637 
317.271 
358.366 
328.626 
316.181 
348.135 
332.537 
322.387 
327.855 
378.591 
362.186 
363.684 
330.736 
321.367 
313.792 
353.754 
339.846 
334.455 
311.869 
311.178 
366.713 
322.679 
347.293 
345.101 
332.695 
333.984 
319.682 
285.005 
355.809 
358.073 
301.188 
335.874 
315.999 
280.096 
364.187 
366.274 
353.273 
349.654 
343.713 
310.894 
318.928 
331.319 
332.24 
373.486 
360.234 
322.258 
339.458 
305.176 
343.76 
368.347 
358.664 
341.674 
344.472 
313.903 
370.113 
338.05 
353.347 
336.696 
352.589 
397.52 
365.214 
330.063 
318.867 
327.233 
316.799 
327.571 
338.462 
342.128 
328.93 
357.338 
324.5 
320.901 
335.59 
367.52 
329.294 
325.32 
337.232 
347.297 
331.856 
322.281 
332.082 
329.07 
304.551 
339.452 
341.877 
383.186 
353.065 
338.15 
363.705 
295.963 
340.656 
326.566 
314.099 
341.994 
335.334 
343.632 
352.211 
380.312 
350.874 
361.169 
320.633 
361.519 
332.568 
334.168 
294.622 
326.676 
316.053 
356.883 
372.362 
360.681 
352.843 
373.396 
359.081 
358.575 
372.816 
335.123 
340.637 
400.404 
351.41 
341.31 
353.638 
350.739 
336.006 
309.603 
349.28 
297.911 
333.406 
322.256 
360.092 
344.565 
360.565 
388.992 
375.58 
361.967 
347.95 
339.494 
348.633 
301.117 
280.46 
335.411 
324.042 
334.538 
336.71 
385.075 
389.448 
361.874 
379.48 
376.771 
384.948 
346.476 
352.233 
338.206 
306.1 
315.089 
333.412 
306.991 
340.218 
282.032 
332.393 
336.308 
350.546 
348.498 
333.993 
385.22 
397.969 
392.857 
367.522 
360.74 
378.063 
346.261 
360.61 
364.335 
354.885 
346.937 
352.615 
350.512 
339.259 
380.063 
399.608 
328.854 
380.904 
388.134 
407.203 
359.339 
371.085 
364.149 
358.389 
337.116 
393.263 
403.436 
374.779 
375.227 
362.376 
374.976 
397.695 
363.393 
353.091 
407.612 
367.771 
334.302 
359.161 
342.472 
393.557 
390.235 
376.411 
365.553 
376.917 
432.767 
335.298 
387.431 
420.174 
413.017 
350.756 
316.715 
394.284 
402.566 
367.263 
404.63 
415.29 
355.82 
369.21 
398.366 
381.99 
384.543 
390.311 
368.233 
408.667 
455.056 
437.306 
337.425 
387.784 
445.113 
401.135 
398.747 
390.755 
387.965 
370.799 
363.4 
430.988 
404.185 
399.866 
350.724 
376.759 
422.237 
388.829 
395.797 
376.972 
362.349 
402.457 
402.943 
394.477 
373.849 
368.622 
354.351 
321.164 
401.628 
446.477 
371.485 
426.936 
357.492 
396.255 
387.299 
404.747 
428.257 
417.058 
406.508 
404.558 
352.374 
369.983 
404.108 
341.462 
396.289 
369.239 
424.402 
393.526 
416.5 
396.519 
380.56 
429.415 
390.75 
367.067 
393.679 
402.07 
397.809 
373.907 
373.438 
427.536 
370.063 
419.197 
385.356 
355.606 
449.71 
359.736 
347.787 
377.964 
383.225 
410.834 
379.99 
381.143 
392.856 
381.445 
345.206 
393.847 
377.508 
367.086 
373.403 
360.971 
409.756 
411.471 
383.461 
340.746 
430.256 
377.811 
372.307 
306.306 
370.074 
342.79 
390.136 
367.533 
375.807 
401.19 
393.762 
367.012 
369.112 
391.432 
366.005 
386.378 
391.661 
394.687 
352.247 
361.268 
349.326 
376.299 
385.83 
353.278 
367.314 
417.475 
443.274 
345.667 
353.49 
362.511 
386.002 
356.355 
402.308 
417.101 
366.636 
423.901 
415.029 
366.238 
367.942 
368.614 
363.478 
354.47 
354.594 
385.434 
407.009 
359.798 
401.683 
439.677 
399.381 
430.922 
396.765 
392.394 
384.728 
359.381 
346.641 
385.241 
374.062 
443.879 
368.085 
376.901 
400.434 
368.08 
394.714 
389.661 
404.702 
418.292 
406.875 
378.742 
440.646 
429.869 
443.356 
350.738 
388.283 
371.809 
390.247 
411.289 
342.49 
391.986 
391.034 
320.867 
387.163 
354.036 
401.371 
389.25 
393.466 
372.092 
425.955 
430.294 
391.769 
364.088 
402.914 
423.63 
436.289 
378.022 
435.137 
347.483 
424.369 
406.158 
351.018 
434.828 
450.65 
489.13 
420.256 
374.155 
432.661 
423.554 
427.556 
444.414 
424.361 
467.681 
397.195 
452.308 
400.144 
467.124 
407.209 
431.342 
412.066 
428.074 
440.538 
401.061 
413.657 
426.174 
407.339 
392.256 
437.149 
405.131 
402.4 
404.087 
385.497 
458.516 
385.62 
427.745 
428.603 
408.995 
420.011 
463.155 
424.991 
395.096 
417.822 
471.39 
405.77 
389.853 
370.944 
390.907 
368.941 
394.374 
394.458 
440.654 
388.945 
428.164 
412.116 
412.203 
402.001 
427.008 
354.044 
418.006 
419.58 
380.97 
428.493 
454.771 
456.387 
428.546 
358.783 
455.844 
387.933 
440.206 
412.835 
390.97 
396.663 
362.537 
419.753 
378.05 
414.178 
405.282 
382.641 
427.972 
411.71 
399.068 
338.956 
387.759 
439.844 
419.319 
463.257 
469.178 
399.067 
387.589 
464.137 
430.228 
459.354 
437.987 
474.137 
472.672 
459.042 
501.742 
419.266 
423.257 
466.585 
485.44 
431.726 
452.413 
439.45 
437.413 
467.201 
458.878 
414.711 
425.557 
421.601 
499.2 
433.815 
512.601 
401.513 
464.086 
460.95 
422.667 
439.54 
452.709 
388.159 
457.257 
423.992 
490.21 
457.923 
425.746 
429.647 
426.296 
397.617 
471.076 
412.103 
492.88 
426.413 
412.649 
453.703 
460.448 
468.497 
474.51 
439.616 
387.813 
428.544 
401.982 
415.97 
459.841 
429.518 
439.521 
443.475 
453.112 
432.484 
429.817 
474.859 
436.195 
433.244 
375.479 
458.702 
439.058 
451.07 
505.842 
389.677 
392.796 
453.517 
417.376 
408.051 
513.21 
487.976 
477.029 
423.602 
433.035 
508.06 
409.163 
449.08 
453.064 
440.446 
476.634 
455.745 
405.078 
464.668 
398.308 
478.742 
478.847 
455.142 
502.867 
483.7 
469.181 
471.683 
496.205 
466.281 
506.002 
454.077 
448.714 
427.654 
547.597 
455.796 
471.018 
425.715 
448.063 
395.261 
452.454 
477.614 
493.902 
429.783 
426.126 
460.154 
421.279 
400.233 
449.96 
481.675 
506.702 
412.132 
482.866 
434.778 
442.81 
542.703 
411.66 
423.865 
435.078 
389.967 
412.933 
430.026 
425.014 
417.886 
494.663 
480.808 
444.119 
502.016 
418.474 
446.272 
404.704 
447.467 
452.287 
418.535 
485.146 
445.533 
476.102 
450.053 
431.088 
509.905 
480.95 
387.176 
419.531 
477.075 
468.741 
431.702 
435.104 
429.744 
412.441 
421.699 
434.781 
444.936 
500.936 
480.465 
497.025 
508.083 
481.951 
469.399 
405.908 
472.318 
436.266 
477.508 
450.797 
556.303 
455.081 
461.892 
428.156 
508.081 
473.703 
513.807 
436.422 
427.7 
455.683 
417.954 
414.579 
447.858 
435.858 
517.698 
500.269 
427.301 
501.963 
433.75 
462.429 
514.477 
518.395 
508.03 
436.294 
492.702 
447.1 
511.205 
384.157 
413.668 
468.861 
475.232 
460.218 
454.639 
420.546 
457.393 
495.614 
462.723 
441.103 
470.67 
480.88 
482.294 
498.423 
464.259 
376.246 
443.855 
434.356 
481.235 
428.711 
442.052 
433.096 
446.105 
490.271 
459.262 
519.022 
473.008 
483.826 
477.569 
491.926 
488.564 
455.751 
455.517 
478.563 
393.275 
466.302 
441.297 
525.714 
480.578 
474.792 
409.465 
414.388 
479.527 
475.558 
495.674 
470.47 
472.302 
436.069 
491.354 
448.521 
475.69 
482.977 
556.851 
467.914 
452.207 
437.239 
407.991 
457.986 
370.469 
424.663 
429.508 
482.257 
500.24 
492.097 
476.412 
466.561 
448.693 
501.053 
446.356 
452.56 
534.925 
480.369 
520.317 
476.914 
474.218 
472.032 
481.787 
505.515 
496.862 
457.062 
484.839 
565.133 
497.587 
512.813 
519.701 
469.559 
424.25 
440.482 
456.608 
459.673 
451.085 
476.193 
455.15 
439.591 
394.6 
384.418 
467.793 
461.181 
465.562 
459.885 
516.832 
450.696 
515.351 
406.599 
430.725 
496.016 
510.954 
524.822 
517.325 
539.702 
471.656 
517.043 
535.168 
484.11 
461.554 
464.233 
459.468 
534.795 
460.106 
479.181 
522.117 
441.58 
502.548 
510.695 
399.727 
513.209 
532.718 
488.547 
601.345 
492.737 
523.127 
469.453 
536.105 
486.165 
508.394 
401.311 
446.46 
542.251 
549.728 
482.501 
511.734 
515.915 
412.056 
509.795 
485.223 
438.135 
443.571 
441.089 
454.396 
421.397 
451.513 
459.912 
498.291 
439.418 
563.017 
453.781 
496.864 
485.164 
440.069 
507.942 
501.2 
504.272 
443.976 
466.047 
439.661 
457.573 
508.567 
470.862 
515.741 
486.946 
437.388 
432.373 
482.074 
504.083 
484.136 
496.248 
505.693 
476.661 
509.542 
482.518 
479.831 
451.084 
538.196 
527.228 
526.15 
506.506 
511.42 
589.611 
462.725 
488.832 
439.491 
540.901 
487.033 
475.742 
422.825 
491.794 
444.575 
508.235 
