ITEM: TIMESTEP
600000
ITEM: NUMBER OF CELLS
1000
ITEM: BOX BOUNDS ss rr pp
0 0.004
0 0.01
-0.5 0.5
ITEM: CELLS f_temp1[*] 
295.878 
323.718 
329.879 
284.414 
311.72 
342.021 
339.213 
288.811 
298.661 
320.668 
289.767 
311.476 
283.259 
327.899 
290.367 
277.743 
284.515 
306.578 
328.874 
327.798 
318.774 
321.646 
271.958 
316.103 
317.831 
308.775 
278.049 
327.74 
318.72 
296.953 
311.511 
296.987 
310.486 
313.518 
285.323 
288.569 
307.688 
316.509 
332.675 
334.771 
305.571 
295.467 
282.601 
308.768 
311.649 
323.092 
331.707 
311.739 
284.761 
293.853 
290.83 
287.482 
337.602 
292.424 
338.973 
302.341 
296.546 
300.422 
331.057 
319.914 
299.974 
312.095 
298.789 
290.542 
296.464 
324.688 
322.019 
334.918 
305.472 
325.616 
351.635 
349.589 
307.227 
346.529 
305.992 
361.694 
335.356 
289.955 
345.638 
336.514 
315.89 
324.301 
356.856 
325.895 
312.394 
346.268 
309.041 
314.004 
310.886 
305.774 
317.147 
303.601 
318.114 
298.01 
317.727 
330.682 
353.951 
340.655 
329.436 
313.831 
358.484 
304.272 
318.94 
317.333 
344.518 
316.042 
365.558 
358.198 
380.482 
332.307 
381.63 
360.45 
358.676 
335.723 
330.208 
331.513 
325.725 
337.922 
384.312 
367.057 
382.877 
326.165 
381.463 
312.643 
334.596 
321.565 
326.76 
372.519 
342.906 
348.23 
332.178 
346.158 
374.576 
318.333 
296.581 
328.087 
316.923 
333.454 
322.167 
349.396 
343.635 
319.071 
295.947 
347.064 
315.224 
350.301 
264.064 
342.575 
323.074 
330.118 
325.69 
292.462 
318.99 
355.921 
357.73 
315.931 
296.062 
328.763 
287.253 
336.21 
341.912 
323.223 
346.473 
336.391 
304.497 
355.346 
340.946 
305.842 
317.843 
289.83 
330.592 
353.596 
328.599 
321.948 
290.225 
359.576 
304.414 
349.244 
362.502 
336.189 
335.35 
339.213 
338.423 
331.068 
356.279 
350.716 
294.439 
327.898 
342.232 
340.808 
334.219 
354.317 
315.374 
331.654 
323.952 
321.001 
377.689 
365.179 
345.347 
365.48 
345.419 
325.76 
338.926 
354.42 
366.645 
349.199 
354.122 
388.812 
337.001 
371.203 
413.227 
373.11 
319.392 
374.639 
393.722 
330.321 
338.625 
298.661 
317.419 
341.881 
345.704 
390.335 
314.475 
313.324 
378.133 
346.288 
357.491 
363.63 
330.69 
373.843 
355.371 
336.561 
321.047 
309.738 
323.44 
380.083 
360.024 
324.252 
339.296 
372.939 
354.131 
360.135 
315.274 
385.596 
350.158 
375.065 
357.405 
344.834 
340.189 
342.706 
381.1 
350.105 
336.072 
364.812 
322.76 
337.362 
360.149 
375.467 
398.083 
334.136 
406.285 
332.79 
339.985 
350.702 
349.001 
398.57 
359.868 
346.682 
356.912 
347.166 
321.558 
331.55 
331.455 
346.023 
357.59 
326.942 
372.489 
372.541 
338.028 
361.057 
340.667 
349.078 
378.827 
373.119 
338.774 
355.647 
272.836 
340.018 
377.225 
365.755 
357.749 
364.088 
320.888 
365.362 
350.616 
382.149 
349.023 
364.419 
409.973 
353.175 
353.542 
418.545 
381.712 
377.907 
365.583 
373.572 
343.168 
396.953 
385.574 
333.529 
324.341 
353.524 
380.996 
352.998 
357.785 
336.194 
313.88 
388.505 
339.891 
385.529 
361.707 
329.878 
374.6 
321.186 
360.143 
373.708 
333.775 
377.804 
323.351 
329.444 
344.617 
361.307 
349.372 
354.349 
383.39 
365.546 
375.523 
313.995 
344.44 
338.84 
388.586 
400.636 
382.003 
372.111 
402.156 
370.995 
355.864 
403.251 
370.714 
416.729 
368.36 
355.616 
365.968 
380.79 
361.158 
338.101 
329.223 
358.836 
362.172 
363.013 
373.95 
372.366 
336.366 
424.478 
358.948 
391.288 
364.117 
345.274 
354.905 
386.009 
363.948 
338.385 
374.984 
340.674 
356.008 
389.397 
378.806 
352.137 
396.535 
340.501 
352.949 
373.367 
401.785 
423.408 
409.273 
397.912 
349.79 
347.877 
392.153 
368.945 
386.253 
374.653 
361.242 
377.022 
359.127 
340.694 
380.92 
328.077 
363.116 
365.512 
390.421 
336.671 
328.037 
327.435 
397.289 
343.46 
392.131 
300.048 
345.239 
360.918 
345.893 
346.753 
330.597 
347.082 
396.395 
340.765 
354.506 
403.516 
377.789 
345.132 
355.618 
390.389 
370.962 
376.318 
368.873 
325.871 
363.396 
373.87 
382.69 
370.005 
348.62 
379.175 
428.67 
388.42 
354.646 
398.124 
327.589 
421.017 
412.168 
333.828 
395.66 
399.688 
381.037 
364.416 
345.061 
398.614 
363.055 
408.466 
387.704 
362.458 
380.485 
375.528 
348.326 
420.683 
407.248 
363.975 
367.36 
382.463 
381.426 
365.157 
351.042 
365.607 
357.776 
395.039 
416.359 
346.025 
441.949 
438.058 
357.317 
363.923 
385.611 
366.233 
401.154 
366.469 
408.818 
371.234 
377.01 
362.436 
366.833 
355.889 
360.003 
343.25 
375.778 
399.273 
388.809 
380.471 
355.018 
362.361 
362.516 
401.244 
372.061 
389.961 
386.206 
374.331 
382.426 
372.666 
399.129 
381.697 
376.643 
438.166 
428.651 
398.886 
405.801 
415.196 
396.309 
398.324 
386.793 
369.931 
402.042 
386.149 
378.891 
349.586 
387.862 
479.487 
385.843 
421.246 
353.888 
380.252 
379.092 
378.793 
382.592 
318.322 
396.414 
361.041 
378.995 
367.94 
384.089 
372.042 
425.57 
408.39 
377.033 
379.825 
358.821 
395.348 
425.111 
392.498 
440.494 
416.702 
393.615 
368.679 
368.67 
363.798 
372.583 
360.686 
430.873 
361.592 
392.158 
416.115 
395.808 
390.275 
405.628 
400.774 
431.851 
394.231 
438.733 
387.72 
426.555 
431.593 
441.385 
469.854 
388.897 
441.467 
405.573 
410.465 
406.64 
385.25 
401.309 
445.699 
439.139 
401.776 
385.158 
382.66 
393.361 
387.523 
419.079 
390.995 
374.853 
430.833 
424.432 
439.809 
437.632 
459.215 
478.039 
423.025 
436.932 
490.964 
373.933 
377.861 
443.904 
436.605 
402.616 
439.445 
419.051 
451.973 
378.991 
424.304 
409.722 
376.06 
401.061 
414.152 
397.209 
440.199 
382.634 
396.325 
381.18 
341.633 
436.266 
393.534 
455.971 
359.329 
409.197 
397.14 
343.452 
386.366 
439.713 
432.319 
397.154 
414.224 
399.079 
419.794 
490.249 
388.689 
427.71 
431.481 
422.893 
415.401 
473.807 
462.975 
464.209 
407.365 
395.297 
448.866 
371.683 
381.72 
356.943 
426.289 
359.662 
356.822 
493.339 
454.983 
403.232 
414.441 
349.979 
392.031 
403.372 
419.04 
418.527 
489.15 
380.38 
412.997 
405.315 
402.791 
401.06 
396.239 
445.9 
417.639 
425.107 
424.34 
387.089 
432 
366.051 
396.923 
419.848 
410.014 
372.173 
408.442 
375.015 
410.929 
428.55 
374.556 
409.987 
385.402 
387.488 
360.489 
449.272 
440.637 
503.988 
467.27 
378.824 
405.767 
468.678 
404.519 
445.508 
456.186 
399.135 
391.799 
432.008 
380.276 
412.187 
436.72 
442.97 
449.883 
381.808 
396.666 
367.874 
435.49 
396.02 
462.718 
402.639 
425.201 
425.742 
464.34 
431.189 
433.808 
427.262 
477.412 
445.184 
347.081 
421.246 
406.147 
411.359 
437.669 
416.782 
496.13 
500.355 
385.194 
409.554 
443.486 
431.516 
391.005 
402.695 
449.733 
460.673 
436.193 
434.824 
466.123 
401.142 
398.05 
451.88 
458.763 
407.823 
391.188 
429.444 
424.797 
502.749 
463.705 
466.202 
481.69 
483.219 
443.817 
477.313 
437.723 
470.767 
437.858 
468.572 
392.258 
453.212 
459.584 
421.047 
461.58 
425.686 
438.756 
423.957 
464.488 
478.677 
441.168 
489.107 
438.383 
493.401 
417.049 
407.768 
438.668 
439.989 
458.257 
427.468 
432.841 
457.652 
432.268 
427.141 
467.542 
475.485 
450.439 
468.589 
438.544 
470.708 
425.11 
496.115 
471.448 
443.604 
462.956 
425.071 
434.484 
441.137 
419.216 
418.378 
427.637 
461.046 
437.894 
436.618 
453.886 
478.08 
515.399 
452.278 
457.897 
484.066 
466.697 
499.768 
396.107 
504.371 
526.331 
461.039 
446.483 
454.622 
553.821 
502.946 
491.118 
504.005 
467.716 
450.02 
485.207 
549.046 
487.414 
432.822 
522.307 
498.523 
477.825 
410.289 
505.195 
407.345 
501.322 
479.027 
449.468 
402.546 
493.202 
463.933 
444.62 
435.062 
473.069 
456.947 
409.921 
457.948 
371.252 
470.668 
497.517 
485.777 
408.548 
544.471 
454.56 
471.191 
439.144 
467.647 
430.346 
501.115 
482.367 
417.303 
374.227 
459.962 
471.91 
485.173 
448.398 
434.191 
471.159 
387.621 
449.245 
424.194 
481.027 
413.179 
473.057 
446.63 
546.347 
468.82 
511.289 
485.223 
489.233 
398.292 
477.392 
473.198 
449.58 
503.427 
492.317 
412.886 
474.804 
456.692 
455.337 
454.132 
479.375 
472.584 
534.887 
467.32 
448.163 
429.673 
494.4 
447.713 
440.554 
511.396 
498.367 
514.824 
482.147 
459.407 
507.771 
534.891 
507.913 
493.097 
542.225 
438.18 
430.923 
410.456 
438.905 
563.179 
478.12 
574.452 
518.693 
477.637 
513.418 
519.642 
522.348 
521.49 
575.576 
442.602 
488.478 
482.842 
449.245 
536.15 
455.497 
553.595 
487.463 
543.905 
532.703 
530.325 
524.06 
536.166 
507.179 
526.767 
473.967 
462.204 
529.472 
464.362 
523.388 
484.142 
487.301 
496.296 
522.447 
475.497 
513.381 
496.204 
468.73 
480.416 
510.191 
498.835 
446.596 
395.661 
483.949 
504.318 
451.364 
486.466 
454.437 
432.225 
502.653 
509.843 
499.856 
547.538 
456.377 
457.107 
541.982 
435.669 
505.196 
517.201 
567.165 
602.126 
479.431 
464.466 
457.911 
495.705 
486.328 
518.259 
460.114 
475.015 
491.684 
516.373 
486.69 
491.004 
430.717 
453.566 
497.308 
485.011 
546.757 
476.733 
464.404 
552.596 
446.787 
474.697 
492.347 
453.102 
491.086 
555.594 
470.784 
518.381 
500.286 
433.6 
541.039 
446.577 
494.824 
512.044 
474.376 
479.43 
442.475 
509.264 
526.14 
553.388 
461.698 
