ITEM: TIMESTEP
5900000
ITEM: NUMBER OF CELLS
1000
ITEM: BOX BOUNDS ss rr pp
0 0.004
0 0.01
-0.5 0.5
ITEM: CELLS f_temp1[*] 
293.224 
288.516 
304.708 
274.064 
308.46 
317.919 
278.89 
275.036 
293.395 
291.218 
348.382 
317.621 
292.11 
331.907 
336.053 
320.828 
329.619 
353.305 
301.61 
318.021 
361.711 
296.256 
305.464 
338.454 
323.827 
277.98 
329.856 
339.608 
272.377 
308.982 
314.887 
314.66 
310.614 
301.496 
284.333 
295.079 
311.105 
301.09 
313.653 
317.708 
308.903 
301.697 
332.126 
315.333 
292.055 
290.811 
321.714 
338.491 
318.31 
358.806 
295.901 
341.577 
352.178 
353.131 
328.131 
316.181 
311.381 
298.869 
325.996 
315.656 
351.842 
335.115 
313.32 
292.932 
320.321 
295.661 
319.522 
319.653 
303.828 
300.639 
308.983 
305.635 
323.208 
292.964 
283.112 
323.064 
324.46 
304.799 
299.98 
281.352 
308.08 
330.761 
311.037 
339.768 
292.638 
323.162 
313.259 
315.789 
316.062 
296.916 
334.427 
307.963 
330.242 
319.629 
306.637 
329.532 
303.877 
315.053 
308.359 
293.428 
332.378 
339.194 
322.691 
335.922 
299.616 
337.069 
332.339 
328.663 
325.947 
319.489 
345.347 
314.111 
328.932 
300.956 
329.094 
354.452 
336.172 
306.432 
328.237 
312.476 
309.797 
334.149 
347.173 
324.788 
324.311 
321.65 
343.072 
360.365 
339.847 
334.239 
322.313 
333.695 
324.801 
316.274 
354.117 
351.866 
391.956 
304.405 
371.401 
374.39 
301.501 
334.836 
368.584 
323.15 
336.801 
359.233 
339.222 
341.963 
314.491 
367.51 
371.16 
334.796 
334.503 
313.038 
343.132 
329.368 
342.524 
342.258 
346.343 
341.159 
369.674 
341.688 
315.418 
336.387 
307.048 
284.827 
328.09 
309.603 
331.766 
369.124 
341.876 
356.461 
346.261 
333.265 
359.435 
325.727 
340.443 
331.39 
335.185 
337.373 
355.443 
376.366 
310.678 
306.885 
319.39 
356.217 
332.664 
316.202 
363.295 
360.774 
353.564 
369.601 
406.285 
338.53 
362.813 
365.455 
367.814 
344.522 
345.231 
343.259 
349.997 
340.941 
354.426 
339.526 
339.466 
347.399 
362.447 
382.268 
412.127 
351.748 
332.356 
362.945 
356.798 
350.642 
320.506 
329.3 
353.253 
389.589 
357.93 
343.891 
369.803 
344.142 
337.227 
361.549 
366.194 
342.135 
346.594 
352.725 
381.185 
370.04 
341.149 
332.884 
395.003 
397.529 
399.809 
317.559 
355.386 
387.566 
366.77 
309.067 
356.259 
338.587 
327.237 
329.522 
343.91 
378.978 
396.069 
417.279 
367.384 
384.512 
348.051 
359.563 
316.653 
342.127 
309.051 
322.395 
324.647 
385.207 
349.611 
350.337 
390.448 
369.316 
339.867 
367.169 
338.798 
340.516 
312.015 
371.745 
360.257 
376.554 
332.284 
360.083 
344.84 
364.792 
348.963 
341.784 
403.917 
383.249 
372.84 
373.889 
430.63 
355.796 
367.209 
359.234 
351.123 
416.619 
345.173 
370.06 
401.43 
363.964 
380.358 
397.7 
394.828 
330.195 
358.059 
332.825 
387.429 
383.53 
371.647 
324.507 
346.846 
372.914 
364.056 
404.329 
348.266 
371.123 
371.304 
394.023 
414.513 
377.131 
405.559 
388.307 
355.487 
381.995 
356.336 
385.874 
324.181 
334.543 
386.768 
388.903 
371.043 
363.974 
397.169 
426.728 
347.3 
361.994 
338.923 
428.419 
372.912 
401.105 
376.122 
403.293 
385.546 
368.238 
380.304 
376.82 
389.596 
373.6 
349.948 
392.923 
403.877 
396.168 
356.015 
365.014 
402.081 
399.053 
380.256 
384.688 
345.314 
385.171 
360.947 
366.302 
340.866 
402.276 
408.692 
384.352 
424.141 
418.269 
395.27 
423.323 
391.583 
391.225 
434.26 
346.398 
395.652 
354.51 
353.268 
360.602 
356.143 
350.83 
411.095 
395.444 
377.603 
385.993 
380.089 
343.238 
370.297 
334.703 
364.397 
343.392 
394.271 
367.404 
379.024 
363.85 
413.564 
441.303 
367.032 
376.37 
392.731 
323.354 
395.791 
391.697 
399.46 
383.425 
367.998 
417.485 
421.435 
407.63 
420.397 
348.086 
384.649 
367.718 
438.583 
394.05 
372.031 
403.174 
386.443 
386.966 
400.052 
426.87 
399.063 
471.259 
441.575 
396.087 
386.334 
423.566 
376.397 
425.637 
395.166 
390.846 
404.239 
419.073 
458.089 
393.685 
411.366 
404.076 
394.967 
431.006 
398.076 
460.188 
413.344 
442.112 
424.695 
381.9 
398.833 
423.257 
415.463 
494.402 
427.355 
372.284 
385.761 
459.165 
434.873 
453.103 
426.504 
417.46 
409.27 
365.649 
452.435 
434.029 
434.706 
379.389 
383.076 
408.594 
378.558 
401.966 
438.337 
357.989 
384.428 
366.294 
436.308 
414.193 
435.718 
389.954 
391.036 
403.516 
414.863 
368.402 
370.796 
408.811 
377.688 
386.219 
379.627 
404.821 
413.423 
373.891 
367.885 
423.196 
404.282 
444.761 
382.761 
362.591 
383.15 
429.804 
397.518 
412.193 
374.959 
410.5 
396.726 
401.139 
405.869 
387.294 
414.957 
420.524 
386.72 
375.968 
413.234 
350.897 
381.201 
356.611 
378.112 
407.649 
350.559 
404.042 
389.044 
456.463 
376.286 
390.72 
492.501 
396.966 
438.446 
353.524 
415.123 
401.136 
431.616 
354.643 
397.948 
389.837 
434.837 
408.377 
400.6 
405.186 
401.384 
385.105 
377.865 
374.487 
381.181 
392.817 
346.299 
400.637 
405.339 
325.866 
405.578 
418.066 
392.564 
414.631 
419.228 
426.139 
398.388 
399.419 
422.977 
407.88 
381.102 
361.995 
399.161 
405.449 
423.773 
395.523 
381.4 
410.348 
427.197 
424.983 
469.73 
378.735 
423.789 
415.86 
403.456 
397.188 
441.233 
401.681 
374.077 
405.586 
395.646 
411.792 
356.581 
422.244 
381.039 
374.035 
383.96 
426.905 
366.773 
427.868 
403.62 
426.779 
431.201 
443.701 
391.56 
378.414 
408.692 
453.602 
439.925 
424.798 
486.694 
408.43 
414.732 
403.787 
404.162 
391.666 
385.888 
358.186 
419.976 
451.577 
480.802 
425.153 
394.933 
439.022 
400.324 
424.146 
515.129 
451.282 
449.008 
447.795 
469.361 
434.796 
427.261 
438.421 
432.044 
429.775 
478.46 
479.842 
436.754 
419.48 
460.582 
462.666 
437.023 
436.199 
431.295 
439.396 
472.996 
473.686 
444.271 
495.166 
432.815 
459.43 
521.708 
429.305 
437.643 
475.028 
422.809 
447.106 
398.983 
444.642 
482.905 
420.714 
432.447 
439.829 
472.954 
467.175 
416.674 
423.571 
455.146 
404.034 
427.873 
482.148 
464.267 
469.159 
468.871 
396.031 
475.372 
430.129 
458.743 
500.675 
403.353 
432.626 
497.783 
454.701 
435.988 
451.137 
512.959 
467.175 
504.295 
441.705 
491.46 
486.575 
403 
436.515 
458.449 
442.582 
425.401 
446.94 
415.611 
448.014 
438.112 
481.311 
454.659 
467.625 
426.316 
423.157 
489.508 
449.173 
468.696 
458.542 
430.702 
504.577 
440.958 
462.016 
425.613 
462.368 
476.371 
477.339 
442.094 
473.343 
386.428 
454.191 
444.421 
458.147 
484.809 
400.542 
418.475 
418.377 
447.811 
425.984 
453.863 
464.466 
488.711 
465.193 
470.033 
455.331 
500.296 
454.835 
462.047 
454.391 
480.859 
488.463 
413.067 
493.637 
537.505 
466.444 
480.384 
510.256 
470.177 
495.943 
440.381 
481.952 
440.909 
513.249 
497.259 
541.7 
533.358 
464.34 
563.674 
496.004 
518.466 
493.231 
509.382 
533.59 
493.014 
436.383 
473.807 
429.052 
473.692 
475.325 
478.928 
490.368 
428.572 
451.991 
469.194 
473.631 
464.357 
456.13 
468.434 
461.735 
463.596 
514.048 
454.844 
437.5 
482.312 
479.88 
479.892 
409.214 
460.617 
429.252 
442.285 
479.872 
456.62 
411.987 
454.113 
455.961 
501.129 
458.765 
405.72 
436.496 
446.501 
444.825 
430.557 
469.833 
496.849 
451.541 
425.269 
453.12 
425.926 
493.491 
456.304 
452.463 
471.63 
477.8 
479.822 
488.553 
426 
432.079 
425.121 
418.188 
385.318 
426.401 
463.325 
403.548 
457.166 
444.859 
404.884 
434.75 
472.42 
493.45 
466.282 
445.98 
463.168 
424.84 
463.639 
422.462 
443.227 
465.595 
509.563 
449.842 
460.312 
463.328 
495.286 
493.221 
464.153 
475.731 
472.298 
488.989 
449.851 
426.231 
456.794 
455.011 
525.668 
470.503 
501.582 
424.522 
424.356 
423.606 
407.92 
431.353 
465.743 
446.393 
438.574 
450.638 
477.576 
420.988 
449.132 
433.533 
451.887 
485.777 
457.384 
490.091 
484.846 
492.813 
437.048 
409.213 
466.016 
503.431 
493.824 
440.731 
514.667 
474.173 
539.217 
477.458 
488.074 
431.1 
499.127 
472.212 
446.018 
453.917 
516.332 
516.505 
514.437 
479.876 
439.105 
461.227 
421.264 
446.167 
510.61 
532.935 
467.403 
483.985 
481.585 
438.862 
505.581 
458.523 
480.914 
463.468 
524.757 
465.189 
506.657 
458.697 
457.53 
449.494 
413.739 
505.155 
428.216 
490.85 
446.758 
433.705 
474.643 
425.642 
501.682 
484.188 
431.808 
472.837 
427.064 
427.715 
440.891 
418.559 
472.281 
343.259 
449.482 
423.291 
474.9 
453.939 
434.926 
545.026 
576.85 
545.937 
478.003 
559.547 
499.19 
450.43 
511.077 
523.346 
452.479 
425.817 
506.678 
442.137 
522.962 
552.291 
517.704 
559.909 
508.358 
509.614 
504.226 
480.777 
537.278 
467.966 
522.19 
512.999 
520.704 
524.94 
526.503 
494.181 
536.83 
536.593 
534.345 
542.356 
500.807 
507.673 
511.568 
538.464 
481.926 
516.034 
497.76 
544.391 
558.14 
491.993 
452.354 
477.586 
507.226 
479.409 
534.65 
504.485 
590.895 
441.975 
482.719 
514.954 
501.871 
456.559 
468.049 
492.848 
512.889 
513.025 
464.081 
502.737 
534.824 
445.407 
482.938 
464.251 
576.867 
462.459 
514.12 
480.78 
499.138 
522.753 
529.197 
470.307 
457.212 
573.779 
502.2 
514.715 
429.532 
497.971 
507.783 
463.422 
471.007 
508.631 
488.406 
415.102 
493.138 
519.167 
480.408 
502.519 
494.197 
492.969 
