ITEM: TIMESTEP
6700000
ITEM: NUMBER OF CELLS
1000
ITEM: BOX BOUNDS ss rr pp
0 0.004
0 0.01
-0.5 0.5
ITEM: CELLS f_temp1[*] 
276.331 
318.4 
303.125 
315.477 
315.055 
355.228 
319.587 
322.344 
328.257 
303.099 
350.687 
291.166 
353.235 
303.075 
303.777 
347.686 
278.59 
315.547 
345.013 
335.672 
307.138 
317.396 
286.521 
357.603 
304.459 
317.081 
292.983 
288.42 
285.17 
314.499 
318.764 
299.442 
276.463 
286.542 
278.897 
299.232 
294.302 
297.296 
282.452 
287.436 
308.585 
267.498 
331.042 
317.332 
309.936 
302.951 
285.956 
302.976 
303.635 
269.672 
288.663 
335.055 
317.205 
311.68 
301.61 
305.173 
299.277 
309.485 
323.595 
312.026 
330.68 
337.143 
313.594 
309.066 
282.311 
332.557 
299.637 
314.571 
343.228 
325.973 
305.183 
304.412 
341.621 
299.913 
305.402 
344.414 
326.733 
308.748 
286.245 
328.413 
361.219 
326.451 
332.262 
346.976 
335.291 
326.687 
334.355 
335.436 
329.086 
343.741 
326.506 
372.651 
349.341 
323.821 
335.34 
306.14 
304.144 
326.376 
295.792 
356.283 
311.684 
343.29 
329.47 
272.624 
313.515 
355.41 
339.349 
352.829 
304.803 
310.714 
323.001 
300.187 
310.995 
322.129 
308.132 
362.54 
289.119 
313.654 
319.508 
304.752 
327.818 
306.945 
340.709 
263.18 
303.474 
319.993 
330.355 
268.535 
307.145 
310.675 
311.763 
312.267 
329.225 
321.342 
294.024 
309.973 
316.933 
329.145 
334.124 
319.902 
296.058 
313.963 
309.301 
325.231 
289.145 
302.905 
319.485 
344.121 
283.121 
315.01 
352.334 
359.074 
348.879 
346.904 
328.119 
367.245 
324.71 
325.459 
330.236 
346.368 
396.163 
378.202 
350.97 
380.261 
355.476 
345.59 
342.089 
345.072 
350.184 
370.447 
379.917 
323.135 
336.729 
370.733 
330.266 
328.314 
363.063 
345.215 
329.927 
357.789 
375.157 
385.363 
312.229 
336.898 
349.886 
356.687 
337.593 
355.873 
322.643 
340.371 
359.003 
356.528 
362.012 
338.664 
355.653 
340.486 
375.241 
350.933 
307.594 
325.237 
341.446 
316.44 
390.305 
357.705 
370.825 
408.8 
417.686 
343.473 
351.564 
376.014 
414.609 
340.294 
401.106 
379.575 
314.837 
354.304 
365.962 
353.319 
348.4 
362.904 
366.936 
355.867 
381.154 
369.898 
360.461 
372.402 
303.243 
406.411 
382.083 
440.804 
394.446 
362.283 
379.58 
364.926 
374.463 
402.881 
433.506 
397.77 
382.272 
433.684 
343.752 
372.112 
347.163 
418.441 
347.904 
400.976 
357.918 
369.46 
376.129 
397.13 
396.042 
346.463 
345.386 
355.841 
370.045 
398.021 
358.599 
383.003 
399.268 
395.595 
358.412 
403.761 
383.953 
367.252 
412.063 
364.164 
404.71 
361.53 
400.214 
388.485 
341.526 
366.826 
360.103 
329.391 
409.985 
372.154 
370.681 
320.2 
361.111 
351.621 
387.831 
357.422 
402.132 
379.371 
338.303 
342.501 
385.989 
368.427 
383.881 
380.217 
357.41 
402.886 
362.908 
422.192 
358.708 
378.691 
397.598 
415.02 
402.203 
403.791 
375.884 
442.884 
406.078 
370.69 
369.554 
335.608 
355.959 
338.59 
388.58 
389.87 
351.455 
373.73 
345.135 
371.453 
367.153 
341.047 
357.131 
372.967 
348.419 
358.878 
349.313 
374.177 
354.708 
388.2 
407.058 
356.035 
379.376 
418.986 
391.544 
391.031 
389.583 
390.484 
376.693 
393.245 
414.038 
367.473 
416.163 
415.254 
384.85 
343.776 
366.582 
374.944 
370.011 
307.786 
363.968 
365.727 
375.581 
360.595 
341.831 
355.009 
395.582 
406.69 
339.353 
330.685 
380.389 
333.023 
354.666 
362.773 
388.437 
356.501 
403.589 
337.957 
383.268 
402.692 
358.835 
417.017 
407.973 
360.348 
331.272 
372.228 
374.142 
385.363 
394.065 
371.273 
392.458 
370.298 
410.224 
442.769 
417.514 
421.511 
402.139 
403.425 
380.564 
403.019 
375.659 
363.5 
374.941 
364.403 
378.064 
399.938 
422.824 
360.29 
342.636 
383.137 
365.089 
367.224 
399.102 
396.901 
403.002 
353.828 
387.711 
386.647 
423.15 
379.601 
387.655 
400.656 
361.441 
408.127 
360.984 
368.785 
375.288 
408.891 
383.26 
407.295 
405.521 
424.301 
415.882 
430.174 
424.632 
392.98 
420.135 
421.025 
388.702 
436.142 
467.509 
343.633 
384.549 
364.167 
424.327 
375.128 
405.814 
347.341 
368.818 
404.172 
416.743 
350.614 
391.461 
395.159 
368.436 
402.76 
424.676 
363.694 
406.399 
355.158 
411.74 
394.665 
377.262 
418.375 
404.768 
421.847 
402.127 
425.957 
431.038 
411.895 
367.2 
358.391 
373.16 
385.154 
410.699 
386.879 
386.459 
428.925 
355.467 
388.68 
370.498 
362.165 
384.465 
420.528 
418.084 
377.075 
389.486 
389.858 
382.821 
373.64 
419.295 
394.472 
470.519 
388.335 
453.634 
416.183 
419.382 
427.852 
391.734 
427.711 
389.935 
404.004 
402.355 
405.084 
405.559 
464.194 
434.606 
356.447 
465.163 
431.048 
418.803 
393.955 
416.217 
378.566 
467.965 
389.907 
393.999 
406.552 
405.894 
415.833 
392.611 
437.543 
404.315 
368.51 
447.509 
435.296 
447.167 
386.601 
405.069 
411.933 
456.406 
454.1 
414.049 
361.65 
396.222 
411.539 
469.975 
419.985 
377.116 
442.662 
412.786 
419.253 
447.468 
440.167 
425.803 
398.947 
426.861 
414.552 
426.532 
338.596 
436.629 
454.156 
432.405 
417.635 
442.292 
502.268 
426.933 
431.923 
424.094 
446.993 
406.222 
407.639 
402.222 
373.99 
394.423 
387.367 
390.895 
415.614 
366.656 
495.066 
432.302 
425.176 
402.634 
387.62 
435.219 
448.149 
397.025 
476.884 
443.168 
483.19 
392.182 
428.369 
434.732 
435.618 
430.048 
465.902 
468.496 
456.358 
446.81 
475.967 
433.329 
435.161 
435.779 
426.701 
469.246 
444.156 
440.423 
422.857 
423.413 
389.909 
451.911 
381.286 
365.3 
500.864 
401.269 
423.254 
417.305 
401.91 
430.867 
403.419 
461.067 
419.098 
370.515 
388.334 
406.709 
458.849 
413.829 
445.199 
413.812 
403.564 
381 
403.801 
456.612 
402.804 
408.05 
357.64 
437.86 
407.235 
473.029 
486.983 
485.706 
413.412 
415.968 
416.676 
432.848 
413.885 
402.849 
444.426 
426.78 
448.797 
420.559 
425.084 
444.167 
362.913 
431.75 
497.356 
409.96 
436.231 
476.611 
480.737 
404.211 
391.653 
425.342 
431.185 
416.726 
483.311 
383.073 
439.494 
405.399 
434.613 
380.972 
438.384 
376.48 
469.38 
444.829 
451.39 
454.676 
506.289 
460.065 
391.822 
443.091 
449.128 
437.782 
497.995 
443.746 
440.631 
396.864 
483.599 
415.892 
498.767 
421.501 
420.49 
459.511 
439.358 
445.318 
422.585 
430.414 
453.987 
404.306 
407.273 
407.148 
509.611 
503.839 
445.494 
444.848 
451.508 
430.637 
538.468 
411.539 
452.26 
481.407 
450.761 
383.808 
492.384 
436.676 
405.306 
403.416 
496.398 
477.806 
451.885 
465.107 
420.129 
419.688 
460.449 
396.613 
441.162 
484.103 
457.41 
479.329 
425.217 
394.561 
488.465 
486.099 
450.894 
454.853 
426.284 
474.173 
444.266 
493.903 
487.732 
414.381 
414.631 
449.681 
436.01 
439.407 
426.697 
477.417 
446.239 
399.45 
427.545 
431.524 
437.01 
462.346 
426.697 
424.564 
450.392 
456.364 
483.646 
427.319 
466.478 
383.263 
429.714 
406.264 
435.924 
355.459 
409.513 
414.77 
389.088 
463.542 
419.149 
456.833 
474.951 
439.768 
487.373 
438.271 
494.958 
499.456 
528.274 
430.578 
454.569 
483.564 
496.676 
464.079 
466.341 
468.244 
442.23 
438.003 
407.508 
496.416 
554.786 
428.764 
508.991 
452.36 
406.4 
490.06 
478.622 
507.686 
434.6 
384.414 
502.647 
385.127 
434.907 
480.053 
446.279 
471.257 
454.126 
519.156 
461.325 
409.976 
462.632 
446.362 
438.437 
405.151 
423.039 
430.613 
443.514 
442.72 
446.082 
425.282 
421.432 
472.664 
445.522 
447.067 
440.355 
392.696 
484.738 
426.353 
417.815 
421.596 
435.241 
394.097 
466.631 
461.178 
517.581 
469.196 
441.607 
444.003 
452.732 
457.328 
490.221 
462.427 
537.91 
509.375 
595.68 
538.39 
533.639 
498.754 
475.854 
470.227 
430.224 
511.888 
508.773 
415.857 
593.53 
476.42 
487.181 
543.746 
445.145 
541.33 
415.3 
471.881 
542.776 
468.973 
485.518 
528.727 
440.751 
436.885 
459.514 
448.93 
448.663 
477.148 
514.76 
521.119 
528.009 
474.541 
479.961 
540.883 
495.187 
486.519 
487.404 
457.945 
442.081 
496.328 
525.215 
460.5 
485.102 
552.011 
478.421 
495.156 
560.7 
481.946 
477.84 
497.643 
477.786 
511.007 
464.322 
434.973 
481.406 
436.874 
520.358 
475.637 
499.697 
550.664 
522.063 
488.865 
467.811 
538.365 
494.87 
492.382 
526.36 
520.238 
486.824 
473.334 
428.602 
460.133 
514.647 
497.217 
487.249 
411.836 
489.137 
446.492 
456.804 
467.193 
452.171 
486.614 
529.537 
453.561 
415.425 
465.786 
515.581 
430.202 
515.973 
504.437 
468.117 
450.907 
539.576 
496.238 
495.137 
545.406 
459.819 
432.128 
532.163 
545.607 
452.698 
458.517 
431.009 
554.419 
464.462 
483.961 
494.362 
433.895 
461.486 
493.353 
451.176 
495.037 
479.557 
481.144 
547.898 
470.144 
487.48 
480.969 
465.664 
482.776 
507.147 
420.725 
519.865 
449.899 
528.476 
516.276 
498.521 
419.647 
443.5 
520.074 
506.43 
570.818 
507.287 
424.289 
490.457 
491.513 
546.224 
520.872 
529.074 
473.31 
536.383 
496.373 
443.673 
549.765 
534.512 
510.701 
469.302 
462.423 
501.396 
502.148 
520.348 
483.743 
554.425 
448.967 
509.85 
560.659 
510.183 
456.535 
496.505 
515.897 
522.398 
471.137 
494.674 
573.938 
550.53 
553.025 
538.389 
484.578 
428.358 
494.756 
490.274 
598.898 
464.394 
428.041 
426.828 
516.258 
508.826 
443.454 
499.017 
537.183 
442.589 
466.212 
471.252 
