ITEM: TIMESTEP
570000
ITEM: NUMBER OF CELLS
100
ITEM: BOX BOUNDS ss pp pp
0 0.001
0 1e-05
-0.5 0.5
ITEM: CELLS c_particles[1] 
138 
123 
110 
122 
110 
122 
91 
114 
101 
112 
104 
129 
129 
113 
100 
91 
135 
110 
116 
104 
119 
103 
88 
118 
94 
98 
103 
129 
74 
105 
127 
125 
95 
99 
112 
101 
119 
108 
103 
97 
119 
89 
101 
99 
124 
85 
94 
110 
108 
116 
87 
103 
97 
119 
94 
94 
93 
89 
89 
105 
95 
86 
97 
97 
90 
78 
103 
98 
98 
85 
105 
99 
93 
94 
99 
72 
94 
98 
80 
90 
105 
89 
81 
74 
83 
82 
84 
90 
93 
81 
95 
84 
82 
91 
96 
95 
81 
78 
99 
80 
