ITEM: TIMESTEP
610000
ITEM: NUMBER OF CELLS
100
ITEM: BOX BOUNDS ss pp pp
0 0.001
0 1e-05
-0.5 0.5
ITEM: CELLS c_particles[1] 
132 
94 
118 
103 
130 
128 
121 
115 
115 
113 
119 
115 
117 
119 
115 
113 
96 
112 
108 
133 
98 
127 
101 
124 
122 
118 
109 
112 
119 
130 
93 
115 
87 
115 
96 
102 
87 
112 
95 
101 
101 
106 
99 
98 
96 
109 
99 
87 
103 
104 
92 
87 
104 
86 
83 
100 
110 
105 
87 
85 
106 
93 
101 
99 
97 
97 
85 
79 
91 
81 
87 
99 
102 
94 
93 
85 
88 
87 
101 
100 
86 
75 
86 
85 
81 
91 
114 
90 
90 
81 
72 
86 
90 
94 
93 
77 
85 
76 
71 
92 
