ITEM: TIMESTEP
370000
ITEM: NUMBER OF CELLS
100
ITEM: BOX BOUNDS ss pp pp
0 0.001
0 1e-05
-0.5 0.5
ITEM: CELLS c_particles[1] 
127 
122 
113 
127 
105 
119 
119 
123 
122 
101 
129 
105 
118 
104 
133 
108 
114 
110 
120 
114 
111 
102 
122 
122 
118 
107 
101 
109 
102 
87 
107 
80 
104 
113 
118 
124 
111 
97 
114 
124 
94 
93 
103 
88 
103 
92 
98 
92 
94 
105 
90 
99 
94 
85 
113 
101 
98 
119 
92 
102 
87 
94 
96 
79 
91 
87 
86 
101 
95 
71 
93 
74 
95 
92 
82 
87 
81 
90 
98 
75 
79 
89 
94 
80 
90 
107 
73 
96 
93 
109 
79 
92 
89 
85 
89 
77 
97 
85 
102 
80 
