ITEM: TIMESTEP
545000
ITEM: NUMBER OF CELLS
100
ITEM: BOX BOUNDS ss pp pp
0 0.001
0 1e-05
-0.5 0.5
ITEM: CELLS c_particles[1] 
118 
96 
92 
107 
114 
124 
133 
126 
108 
121 
124 
120 
145 
107 
103 
98 
107 
90 
106 
107 
116 
121 
98 
121 
109 
106 
119 
114 
108 
122 
99 
102 
118 
109 
107 
98 
97 
109 
98 
98 
100 
102 
117 
94 
100 
95 
106 
128 
108 
102 
83 
116 
76 
110 
85 
98 
109 
94 
101 
80 
88 
89 
98 
89 
75 
93 
103 
87 
92 
100 
102 
94 
85 
97 
109 
94 
104 
84 
105 
102 
77 
80 
101 
85 
60 
94 
91 
80 
72 
83 
87 
105 
83 
85 
82 
89 
88 
91 
74 
84 
