ITEM: TIMESTEP
765000
ITEM: NUMBER OF CELLS
100
ITEM: BOX BOUNDS ss pp pp
0 0.001
0 1e-05
-0.5 0.5
ITEM: CELLS c_particles[1] 
116 
117 
135 
120 
106 
104 
106 
138 
132 
97 
121 
120 
118 
112 
135 
101 
100 
87 
119 
121 
111 
113 
117 
135 
83 
111 
93 
106 
116 
109 
102 
108 
102 
99 
91 
104 
106 
94 
94 
101 
107 
91 
91 
83 
108 
122 
102 
99 
108 
116 
99 
103 
95 
90 
112 
88 
104 
95 
80 
91 
77 
101 
96 
101 
89 
101 
78 
85 
94 
88 
81 
90 
93 
97 
85 
106 
84 
99 
84 
94 
84 
88 
99 
87 
92 
79 
81 
91 
100 
92 
109 
94 
83 
76 
92 
93 
80 
89 
77 
107 
