ITEM: TIMESTEP
915000
ITEM: NUMBER OF CELLS
100
ITEM: BOX BOUNDS ss pp pp
0 0.001
0 1e-05
-0.5 0.5
ITEM: CELLS c_particles[1] 
99 
130 
125 
145 
113 
115 
120 
106 
119 
133 
125 
106 
122 
130 
101 
104 
104 
117 
116 
115 
104 
105 
122 
107 
98 
119 
127 
92 
97 
105 
106 
119 
125 
94 
103 
100 
106 
99 
117 
97 
91 
120 
88 
85 
90 
100 
91 
107 
95 
99 
101 
89 
114 
91 
97 
86 
107 
87 
94 
74 
98 
88 
74 
98 
100 
91 
100 
85 
103 
107 
85 
98 
98 
90 
108 
84 
88 
70 
87 
79 
91 
100 
98 
79 
69 
87 
77 
94 
91 
82 
89 
91 
102 
79 
87 
92 
89 
88 
88 
103 
