ITEM: TIMESTEP
385000
ITEM: NUMBER OF CELLS
100
ITEM: BOX BOUNDS ss pp pp
0 0.001
0 1e-05
-0.5 0.5
ITEM: CELLS c_particles[1] 
115 
134 
114 
127 
106 
118 
128 
110 
112 
133 
117 
141 
112 
116 
98 
122 
130 
113 
108 
95 
123 
91 
102 
103 
132 
120 
99 
86 
110 
117 
114 
113 
118 
97 
89 
90 
107 
86 
109 
91 
108 
97 
97 
101 
93 
97 
102 
101 
94 
100 
112 
90 
103 
93 
98 
94 
92 
94 
84 
109 
82 
94 
76 
90 
98 
93 
89 
96 
86 
93 
102 
92 
104 
82 
108 
89 
102 
89 
87 
91 
109 
99 
81 
80 
77 
97 
92 
103 
86 
79 
73 
97 
101 
79 
78 
82 
77 
87 
98 
77 
