ITEM: TIMESTEP
960000
ITEM: NUMBER OF CELLS
100
ITEM: BOX BOUNDS ss pp pp
0 0.001
0 1e-05
-0.5 0.5
ITEM: CELLS c_particles[1] 
130 
128 
119 
130 
125 
135 
119 
119 
122 
125 
104 
120 
107 
123 
126 
91 
112 
109 
106 
162 
102 
98 
104 
94 
106 
125 
108 
96 
113 
106 
108 
88 
112 
101 
112 
88 
111 
95 
106 
87 
93 
108 
118 
96 
99 
95 
100 
98 
93 
99 
102 
100 
105 
102 
87 
114 
98 
99 
107 
99 
73 
94 
86 
91 
96 
102 
108 
84 
82 
86 
84 
93 
94 
81 
93 
78 
92 
90 
74 
100 
89 
87 
90 
71 
82 
90 
82 
88 
91 
84 
92 
100 
99 
88 
78 
83 
81 
77 
83 
100 
