ITEM: TIMESTEP
260000
ITEM: NUMBER OF CELLS
100
ITEM: BOX BOUNDS ss pp pp
0 0.001
0 1e-05
-0.5 0.5
ITEM: CELLS c_particles[1] 
124 
110 
114 
127 
116 
102 
127 
111 
97 
113 
111 
133 
129 
105 
109 
110 
114 
100 
118 
105 
113 
119 
92 
115 
104 
123 
113 
97 
106 
127 
104 
95 
98 
108 
108 
118 
103 
99 
83 
119 
102 
117 
76 
79 
87 
103 
98 
102 
82 
94 
107 
85 
94 
101 
88 
116 
106 
95 
102 
100 
93 
96 
110 
108 
98 
107 
90 
111 
102 
81 
92 
97 
99 
71 
77 
88 
86 
81 
88 
89 
79 
94 
91 
103 
92 
86 
95 
99 
86 
90 
101 
85 
77 
88 
102 
84 
80 
91 
83 
77 
