ITEM: TIMESTEP
865000
ITEM: NUMBER OF CELLS
100
ITEM: BOX BOUNDS ss pp pp
0 0.001
0 1e-05
-0.5 0.5
ITEM: CELLS c_particles[1] 
130 
135 
113 
102 
110 
122 
121 
125 
99 
129 
113 
110 
90 
102 
116 
95 
111 
98 
112 
101 
120 
105 
106 
103 
96 
110 
103 
98 
101 
126 
90 
83 
112 
103 
99 
113 
94 
104 
102 
110 
111 
85 
102 
113 
102 
92 
99 
118 
109 
93 
96 
88 
100 
109 
95 
96 
81 
87 
90 
105 
107 
98 
100 
102 
99 
117 
101 
81 
86 
99 
103 
93 
94 
119 
81 
100 
91 
95 
104 
79 
90 
88 
81 
87 
78 
89 
86 
92 
98 
91 
76 
91 
84 
93 
88 
77 
97 
94 
92 
96 
