ITEM: TIMESTEP
715000
ITEM: NUMBER OF CELLS
100
ITEM: BOX BOUNDS ss pp pp
0 0.001
0 1e-05
-0.5 0.5
ITEM: CELLS c_particles[1] 
131 
127 
124 
132 
105 
114 
127 
138 
140 
104 
133 
107 
105 
100 
97 
107 
103 
105 
106 
99 
109 
103 
108 
106 
108 
109 
94 
110 
102 
85 
119 
88 
118 
100 
117 
110 
109 
110 
102 
97 
111 
110 
98 
106 
88 
106 
100 
106 
104 
105 
81 
106 
112 
85 
100 
86 
109 
93 
90 
94 
96 
95 
85 
94 
81 
83 
82 
87 
99 
101 
88 
77 
105 
88 
91 
90 
97 
85 
89 
102 
91 
96 
100 
103 
89 
85 
88 
82 
98 
83 
94 
88 
81 
82 
93 
96 
83 
73 
90 
92 
