ITEM: TIMESTEP
555000
ITEM: NUMBER OF CELLS
100
ITEM: BOX BOUNDS ss pp pp
0 0.001
0 1e-05
-0.5 0.5
ITEM: CELLS c_particles[1] 
119 
141 
95 
104 
121 
129 
136 
113 
106 
114 
134 
121 
93 
119 
110 
101 
116 
95 
118 
115 
121 
93 
93 
105 
108 
111 
110 
104 
124 
102 
78 
102 
104 
101 
116 
89 
90 
86 
105 
100 
90 
95 
106 
102 
90 
87 
104 
111 
106 
93 
113 
83 
97 
122 
104 
92 
104 
91 
103 
94 
104 
104 
104 
92 
97 
94 
103 
89 
101 
96 
85 
99 
85 
83 
107 
92 
112 
83 
87 
85 
75 
93 
111 
94 
82 
88 
90 
74 
101 
87 
90 
90 
82 
94 
81 
84 
80 
101 
78 
94 
