ITEM: TIMESTEP
675000
ITEM: NUMBER OF CELLS
100
ITEM: BOX BOUNDS ss pp pp
0 0.001
0 1e-05
-0.5 0.5
ITEM: CELLS c_particles[1] 
107 
126 
125 
138 
115 
111 
111 
104 
124 
107 
126 
134 
112 
109 
105 
108 
113 
103 
113 
128 
114 
115 
107 
109 
125 
112 
110 
97 
99 
137 
93 
114 
99 
106 
83 
115 
97 
117 
100 
125 
111 
94 
95 
101 
78 
112 
94 
95 
84 
79 
69 
108 
110 
93 
107 
96 
91 
114 
104 
106 
92 
92 
99 
84 
93 
99 
97 
94 
79 
95 
69 
77 
96 
90 
88 
98 
81 
79 
85 
100 
100 
85 
96 
94 
99 
109 
96 
84 
91 
91 
93 
80 
80 
80 
82 
76 
85 
87 
96 
75 
