ITEM: TIMESTEP
150000
ITEM: NUMBER OF CELLS
100
ITEM: BOX BOUNDS ss pp pp
0 0.001
0 1e-05
-0.5 0.5
ITEM: CELLS c_particles[1] 
119 
106 
135 
113 
127 
113 
130 
103 
102 
142 
110 
138 
105 
109 
122 
107 
130 
116 
108 
99 
104 
114 
106 
95 
99 
120 
104 
107 
107 
100 
109 
107 
99 
95 
109 
113 
100 
79 
97 
103 
103 
94 
104 
108 
99 
96 
85 
106 
93 
101 
89 
109 
81 
94 
97 
114 
92 
79 
91 
108 
91 
106 
109 
83 
98 
84 
90 
86 
96 
108 
91 
93 
106 
89 
99 
85 
105 
104 
86 
94 
98 
75 
89 
90 
83 
83 
94 
94 
89 
82 
97 
101 
99 
74 
94 
91 
83 
90 
72 
75 
