ITEM: TIMESTEP
785000
ITEM: NUMBER OF CELLS
100
ITEM: BOX BOUNDS ss pp pp
0 0.001
0 1e-05
-0.5 0.5
ITEM: CELLS c_particles[1] 
125 
129 
107 
110 
115 
128 
130 
108 
107 
114 
122 
111 
125 
104 
113 
113 
108 
118 
106 
108 
103 
106 
115 
96 
108 
102 
116 
114 
102 
116 
120 
97 
107 
92 
91 
97 
110 
114 
102 
95 
88 
111 
105 
96 
85 
107 
99 
99 
90 
97 
102 
94 
105 
115 
110 
109 
119 
90 
111 
79 
92 
95 
89 
96 
83 
82 
96 
95 
95 
85 
111 
84 
86 
102 
107 
87 
93 
99 
107 
85 
94 
93 
89 
97 
90 
88 
87 
90 
85 
86 
83 
106 
87 
81 
83 
70 
76 
64 
72 
95 
