ITEM: TIMESTEP
760000
ITEM: NUMBER OF CELLS
100
ITEM: BOX BOUNDS ss pp pp
0 0.001
0 1e-05
-0.5 0.5
ITEM: CELLS c_particles[1] 
125 
123 
129 
124 
142 
102 
119 
105 
144 
130 
116 
123 
121 
121 
111 
97 
116 
104 
108 
113 
109 
102 
112 
112 
101 
124 
104 
105 
91 
106 
115 
116 
104 
102 
103 
99 
104 
117 
94 
101 
108 
95 
105 
91 
105 
98 
103 
88 
92 
112 
93 
105 
87 
81 
96 
93 
99 
91 
101 
100 
93 
93 
90 
82 
97 
84 
86 
86 
91 
101 
107 
104 
99 
83 
82 
90 
89 
82 
89 
90 
89 
82 
86 
87 
91 
89 
97 
88 
79 
96 
88 
97 
87 
83 
93 
95 
81 
81 
77 
79 
