ITEM: TIMESTEP
310000
ITEM: NUMBER OF CELLS
100
ITEM: BOX BOUNDS ss pp pp
0 0.001
0 1e-05
-0.5 0.5
ITEM: CELLS c_particles[1] 
110 
118 
136 
109 
127 
105 
111 
124 
113 
101 
140 
112 
113 
115 
80 
117 
106 
111 
123 
109 
116 
112 
95 
91 
100 
122 
102 
111 
102 
105 
100 
98 
100 
106 
100 
121 
115 
87 
98 
108 
106 
94 
109 
101 
95 
104 
97 
96 
110 
110 
82 
106 
104 
96 
100 
91 
102 
104 
93 
124 
100 
92 
87 
87 
75 
74 
92 
106 
84 
98 
99 
94 
76 
99 
106 
105 
98 
104 
91 
102 
93 
97 
90 
84 
96 
93 
89 
89 
83 
72 
80 
72 
91 
93 
95 
82 
94 
80 
79 
86 
