ITEM: TIMESTEP
120000
ITEM: NUMBER OF CELLS
100
ITEM: BOX BOUNDS ss pp pp
0 0.001
0 1e-05
-0.5 0.5
ITEM: CELLS c_particles[1] 
113 
138 
108 
122 
120 
94 
120 
133 
112 
98 
116 
115 
126 
108 
101 
132 
115 
108 
122 
129 
90 
111 
135 
110 
116 
98 
121 
84 
111 
109 
88 
110 
116 
102 
102 
118 
113 
110 
108 
113 
95 
89 
111 
99 
85 
119 
96 
98 
98 
101 
82 
90 
112 
99 
78 
87 
104 
105 
104 
94 
104 
81 
80 
94 
92 
102 
105 
105 
94 
113 
105 
86 
95 
82 
87 
89 
84 
107 
88 
91 
92 
110 
83 
92 
70 
66 
80 
79 
93 
79 
87 
92 
88 
78 
90 
79 
76 
95 
72 
74 
