ITEM: TIMESTEP
495000
ITEM: NUMBER OF CELLS
100
ITEM: BOX BOUNDS ss pp pp
0 0.001
0 1e-05
-0.5 0.5
ITEM: CELLS c_particles[1] 
116 
127 
108 
113 
106 
127 
100 
106 
126 
127 
114 
119 
105 
107 
119 
100 
111 
106 
87 
107 
106 
99 
110 
119 
103 
116 
102 
100 
124 
104 
122 
121 
108 
86 
118 
114 
112 
104 
98 
99 
105 
106 
94 
98 
95 
90 
107 
78 
112 
98 
99 
93 
107 
96 
95 
91 
104 
77 
91 
107 
92 
99 
87 
98 
87 
84 
102 
111 
77 
97 
92 
95 
82 
97 
94 
88 
96 
94 
119 
97 
97 
101 
88 
82 
89 
95 
98 
107 
93 
82 
96 
78 
71 
85 
78 
86 
93 
71 
93 
90 
