ITEM: TIMESTEP
935000
ITEM: NUMBER OF CELLS
100
ITEM: BOX BOUNDS ss pp pp
0 0.001
0 1e-05
-0.5 0.5
ITEM: CELLS f_temp1[*] 
225.366 
226.85 
227.517 
228.649 
230.704 
233.35 
233.409 
233.372 
233.077 
233.921 
235.695 
236.881 
237.048 
238.178 
239.26 
240.391 
240.069 
241.236 
242.286 
243.295 
243.49 
245.386 
246.449 
247.621 
248.617 
250.862 
251.266 
253.015 
254.304 
255.445 
255.771 
256.614 
256.946 
258.506 
258.592 
259.153 
261.37 
262.821 
264.304 
263.765 
263.987 
265.554 
267.704 
267.154 
269.107 
269.457 
270.003 
271.744 
274.473 
275.991 
276.295 
275.966 
276.47 
278.47 
278.96 
279.945 
280.227 
281.476 
283.204 
285.324 
285.151 
286.816 
287.141 
289.085 
289.341 
290.366 
291.317 
291.146 
292.488 
291.902 
292.579 
293.042 
295.693 
296.23 
296.856 
297.16 
296.8 
298.344 
298.798 
299.563 
300.614 
300.613 
301.269 
303.126 
303.955 
304.622 
305.165 
305.533 
306.215 
307.46 
308.919 
308.383 
309.867 
309.437 
310.636 
311.84 
313.327 
314.84 
314.847 
318.022 
