ITEM: TIMESTEP
740000
ITEM: NUMBER OF CELLS
100
ITEM: BOX BOUNDS ss pp pp
0 0.001
0 1e-05
-0.5 0.5
ITEM: CELLS f_temp1[*] 
225.673 
227.905 
228.472 
230.263 
230.47 
232.338 
234.502 
234.789 
234.253 
236.162 
236.53 
236.712 
238.285 
239.117 
240.314 
242.189 
241.574 
242.687 
244.346 
245.61 
246.011 
245.57 
246.653 
248.276 
250.034 
250.55 
252.35 
253.502 
254.663 
255.877 
257.132 
258.308 
260.142 
261.814 
263.3 
263.416 
264.14 
266.023 
267.3 
268.649 
269.678 
268.765 
270.31 
270.821 
271.393 
274.081 
273.926 
276.161 
277.326 
277.753 
278.347 
278.422 
277.22 
280.043 
281.22 
282.51 
283.821 
284.249 
284.66 
285.41 
285.336 
285.816 
286.943 
289.396 
289.183 
292.406 
293.866 
295.258 
295.91 
296.036 
297.913 
296.913 
296.83 
297.342 
299.347 
299.588 
301.029 
301.79 
300.143 
301.935 
301.281 
302.841 
302.029 
303.605 
303.919 
304.61 
305.607 
308.005 
305.566 
307.647 
309.243 
310.69 
314.375 
312.78 
314.653 
314.429 
316.387 
317.932 
318.296 
319.411 
