ITEM: TIMESTEP
690000
ITEM: NUMBER OF CELLS
100
ITEM: BOX BOUNDS ss pp pp
0 0.001
0 1e-05
-0.5 0.5
ITEM: CELLS f_temp1[*] 
225.638 
227.619 
229.793 
230.733 
232.755 
234.054 
233.868 
233.94 
235.431 
237.148 
238.199 
239.978 
241.696 
240.986 
241.221 
242.923 
243.911 
243.601 
246.007 
248.277 
248.957 
248.975 
250.094 
251.072 
251.25 
252.259 
253.722 
255.086 
256.58 
257.137 
258.546 
257.572 
258.955 
258.855 
261.184 
260.266 
261.089 
263.583 
264.148 
264.013 
265.099 
267.023 
268.292 
270.037 
270.86 
272.126 
273.354 
272.688 
274.83 
276.657 
277.754 
278.785 
280.566 
280.99 
281.763 
282.982 
284.68 
287.023 
288.268 
288.922 
289.531 
290.535 
290.476 
292.57 
292.516 
293.833 
294.113 
294.273 
295.078 
297.136 
296.858 
298.737 
298.259 
298.826 
300.723 
301.292 
301.48 
304.734 
302.743 
303.85 
303.905 
304.569 
308.004 
306.558 
308.697 
311.2 
311.94 
312.257 
311.562 
314.783 
313.52 
313.916 
315.149 
316.47 
317.988 
317.598 
318.574 
318.564 
319.341 
320.843 
