ITEM: TIMESTEP
425000
ITEM: NUMBER OF CELLS
100
ITEM: BOX BOUNDS ss pp pp
0 0.001
0 1e-05
-0.5 0.5
ITEM: CELLS f_temp1[*] 
226.381 
226.949 
228.59 
230.874 
231.613 
233.869 
234.284 
235.089 
237.369 
239.912 
240.308 
241.907 
243.412 
242.882 
244.364 
243.06 
246.292 
247.19 
247.729 
249.091 
251.237 
251.604 
252.651 
253.393 
254.291 
255.675 
255.322 
256.863 
257.908 
258.956 
259.473 
259.172 
259.684 
261.08 
262.509 
263.135 
263.721 
264.659 
266.123 
266.757 
267.178 
267.211 
268.669 
270.429 
272.626 
272.328 
272.973 
273.758 
275.606 
276.353 
276.654 
276.891 
278.313 
278.053 
280.177 
279.233 
281.14 
281.417 
282.036 
283.691 
281.772 
283.33 
284.513 
284.143 
285.279 
285.496 
286.274 
286.853 
287.396 
289.671 
290.595 
291.17 
292.441 
293.308 
294.705 
296.147 
296.524 
297.85 
298.744 
298.801 
300.869 
302.112 
303.268 
305.584 
305.683 
305.988 
306.241 
310.461 
307.235 
311.294 
312.437 
313.072 
312.969 
314.641 
315.148 
315.959 
315.681 
317.568 
319.11 
319.515 
