ITEM: TIMESTEP
625000
ITEM: NUMBER OF CELLS
100
ITEM: BOX BOUNDS ss pp pp
0 0.001
0 1e-05
-0.5 0.5
ITEM: CELLS f_temp1[*] 
226.327 
226.76 
227.092 
228.853 
230.206 
231.3 
232.956 
234.728 
237.023 
237.146 
239.532 
238.545 
240.165 
241.531 
242.01 
243.37 
244.555 
245.139 
245.279 
247.561 
248.955 
249.132 
249.807 
249.916 
250.117 
250.879 
252.462 
252.464 
253.025 
254.475 
257.306 
258.586 
259.074 
259.729 
260.563 
262.031 
261.926 
263.483 
264.018 
266.098 
265.517 
267.209 
268.683 
269.215 
271.376 
270.234 
272.341 
271.096 
270.868 
272.22 
273.524 
275.498 
274.736 
275.184 
276.582 
275.845 
277.706 
278.018 
279.132 
281.138 
282.115 
283.458 
283.846 
285.324 
287.62 
287.896 
288.44 
288.699 
290.107 
292.4 
293.218 
293.783 
293.686 
295.019 
295.34 
296.956 
298.064 
300.662 
299.007 
300.606 
301.161 
302.009 
303.598 
303.501 
305.312 
305.962 
306.489 
307.605 
306.147 
308.811 
311.149 
310.384 
311.496 
311.25 
313.788 
314.517 
314.2 
317.128 
317.228 
317.408 
