ITEM: TIMESTEP
745000
ITEM: NUMBER OF CELLS
100
ITEM: BOX BOUNDS ss pp pp
0 0.001
0 1e-05
-0.5 0.5
ITEM: CELLS f_temp1[*] 
226.793 
228.697 
228.243 
228.442 
228.709 
230.264 
230.962 
232.036 
232.287 
233.52 
235.324 
237.427 
238.471 
239.363 
240.317 
241.524 
240.737 
242.126 
243.156 
244.934 
246.079 
246.826 
248.185 
248.213 
249.822 
249.976 
252.759 
253.966 
254.179 
254.789 
257.069 
258.082 
258.818 
258.284 
259.457 
260.456 
260.464 
261.952 
262.255 
263.243 
264.659 
264.874 
266.138 
267.483 
268.289 
269.146 
270.17 
271.185 
272.646 
272.951 
272.252 
271.607 
274.394 
276.068 
277.809 
278.457 
279.207 
281.245 
281.532 
283.168 
284.859 
285.961 
287.568 
287.372 
287.53 
288.654 
290.949 
291.881 
293.73 
295.091 
294.955 
297.243 
297.038 
296.724 
298.246 
298.436 
299.628 
300.953 
300.386 
302.446 
303.43 
304.994 
305.036 
307.109 
309.183 
309.241 
308.636 
311.69 
309.178 
312.358 
311.738 
313.491 
312.86 
314.592 
313.975 
313.602 
317.11 
317.107 
317.761 
318.488 
