ITEM: TIMESTEP
230000
ITEM: NUMBER OF CELLS
100
ITEM: BOX BOUNDS ss pp pp
0 0.001
0 1e-05
-0.5 0.5
ITEM: CELLS f_temp1[*] 
226.693 
227.568 
227.76 
227.397 
228.875 
229.882 
231.141 
231.092 
232.044 
233.513 
234.269 
237.102 
237.036 
238.261 
240.926 
241.143 
242.297 
243.306 
244.903 
245.857 
246.728 
247.176 
247.983 
250.223 
252.091 
253.114 
253.822 
255.306 
256.141 
257.468 
256.572 
259.051 
258.938 
260.926 
262.097 
263.013 
264.578 
264.516 
266.813 
268.337 
267.819 
268.508 
269.319 
270.818 
270.99 
273.489 
273.515 
274.2 
275.59 
276.883 
276.533 
276.604 
277.781 
278.494 
280.159 
282.025 
281.357 
283.563 
284.186 
285.674 
285.889 
286.779 
287.281 
287.632 
289.631 
289.341 
290.887 
291.444 
292.034 
293.409 
293.706 
293.366 
294.114 
293.245 
294.103 
296.292 
297.561 
298.099 
297.922 
300.284 
301.064 
302.817 
302.82 
307.17 
306.835 
305.986 
307.621 
310.115 
307.622 
308.97 
308.138 
308.299 
308.681 
308.944 
309.677 
311.938 
315.023 
316.301 
317.063 
318.763 
