ITEM: TIMESTEP
15000
ITEM: NUMBER OF CELLS
100
ITEM: BOX BOUNDS ss pp pp
0 0.001
0 1e-05
-0.5 0.5
ITEM: CELLS f_temp1[*] 
225.827 
228.45 
228.874 
230.353 
231.59 
233.345 
233.794 
234.872 
235.927 
236.906 
237.512 
239.023 
239.917 
241.338 
242.565 
243.055 
243.486 
242.38 
243.209 
245.599 
247.757 
247.437 
248.093 
249.372 
251.7 
252.003 
252.433 
254.358 
254.957 
255.842 
255.245 
255.893 
257.138 
257.65 
259 
261.322 
262.844 
264.122 
264.1 
264.86 
265.275 
267.042 
266.405 
267.592 
269.239 
269.09 
270.07 
270.587 
272.096 
272.47 
274.053 
274.341 
275.729 
277.897 
279.128 
279.093 
280.042 
280.488 
280.522 
282.088 
285.006 
285.979 
285.867 
285.386 
285.282 
287.81 
288.943 
288.257 
290.875 
291.334 
292.214 
292.538 
292.837 
294.458 
295.428 
297.578 
296.479 
301.401 
300.068 
300.618 
302.794 
302.009 
301.379 
302.044 
302.919 
302.721 
303.872 
305.952 
304.91 
306.579 
308.552 
309.87 
309.495 
310.015 
311.616 
314.074 
313.661 
315.33 
318.216 
317.549 
