ITEM: TIMESTEP
430000
ITEM: NUMBER OF CELLS
100
ITEM: BOX BOUNDS ss pp pp
0 0.001
0 1e-05
-0.5 0.5
ITEM: CELLS f_temp1[*] 
226.762 
228.667 
229.79 
230.175 
229.297 
230.583 
232.048 
233.163 
235.513 
235.168 
236.111 
236.544 
239.593 
239.781 
239.391 
239.633 
241.187 
242.487 
242.715 
244.418 
245.186 
247.462 
248.59 
249.864 
250.623 
252.485 
253.293 
254.58 
256.609 
257.052 
258.223 
259.008 
259.911 
261.558 
263.105 
264.368 
264.022 
264.595 
264.641 
266.971 
268.785 
268.681 
268.883 
269.159 
271.256 
270.937 
273.005 
275.335 
274.987 
275.759 
278.051 
280.035 
281.662 
282.732 
283.67 
284.135 
284.602 
286.319 
287.546 
286.793 
286.075 
289.464 
290.811 
292.259 
291.766 
292.428 
294.59 
295.894 
295.307 
297.41 
297.835 
298.358 
299.355 
300.133 
299.997 
302.763 
303.129 
305.507 
304.653 
306.449 
307.452 
309.019 
309.274 
308.774 
309.53 
309.768 
310.452 
310.948 
310.263 
313.202 
314.274 
314.202 
314.668 
317.552 
316.742 
317.594 
317.91 
318.693 
319.06 
320.431 
