ITEM: TIMESTEP
970000
ITEM: NUMBER OF CELLS
100
ITEM: BOX BOUNDS ss rr pp
0 0.0001
0 1e-06
-0.5 0.5
ITEM: CELLS c_particles[1] 
16 
14 
18 
20 
22 
18 
17 
14 
13 
30 
24 
13 
15 
12 
16 
17 
21 
20 
24 
20 
16 
17 
19 
14 
26 
23 
23 
19 
14 
14 
11 
12 
12 
13 
19 
22 
11 
15 
11 
17 
21 
11 
4 
18 
16 
16 
14 
17 
14 
11 
14 
23 
10 
17 
19 
14 
15 
17 
10 
14 
14 
20 
15 
14 
12 
13 
16 
15 
9 
20 
13 
14 
20 
16 
14 
15 
9 
21 
14 
19 
9 
4 
13 
15 
15 
15 
13 
11 
19 
20 
22 
17 
21 
17 
20 
20 
16 
17 
13 
13 
