ITEM: TIMESTEP
76900000
ITEM: NUMBER OF CELLS
100
ITEM: BOX BOUNDS ss rr pp
0 0.0001
0 1e-05
-0.5 0.5
ITEM: CELLS c_particles[1] 
16 
21 
15 
15 
16 
12 
22 
15 
12 
22 
13 
10 
24 
16 
15 
9 
18 
16 
14 
15 
8 
13 
9 
14 
17 
19 
16 
12 
17 
21 
28 
22 
23 
16 
14 
19 
18 
19 
20 
13 
17 
17 
18 
16 
18 
18 
15 
16 
17 
15 
12 
13 
17 
16 
15 
14 
15 
11 
10 
10 
21 
18 
11 
14 
12 
17 
14 
14 
14 
17 
19 
18 
18 
18 
16 
17 
16 
13 
21 
17 
15 
16 
8 
16 
12 
16 
12 
16 
19 
23 
24 
17 
23 
15 
10 
21 
12 
14 
10 
22 
