ITEM: TIMESTEP
54500000
ITEM: NUMBER OF CELLS
100
ITEM: BOX BOUNDS ss rr pp
0 0.0001
0 1e-05
-0.5 0.5
ITEM: CELLS c_particles[1] 
10 
21 
15 
23 
16 
12 
22 
16 
24 
8 
13 
14 
19 
26 
18 
15 
14 
16 
22 
16 
13 
20 
19 
17 
18 
17 
17 
10 
19 
19 
23 
25 
14 
13 
10 
20 
23 
20 
17 
6 
14 
28 
20 
18 
15 
15 
18 
17 
13 
24 
13 
13 
21 
16 
17 
19 
10 
15 
11 
15 
12 
13 
12 
14 
12 
11 
12 
17 
9 
13 
10 
16 
11 
13 
14 
16 
15 
13 
9 
19 
12 
17 
22 
21 
13 
9 
19 
14 
14 
23 
15 
16 
20 
12 
17 
14 
20 
13 
23 
13 
