ITEM: TIMESTEP
86200000
ITEM: NUMBER OF CELLS
100
ITEM: BOX BOUNDS ss rr pp
0 0.0001
0 1e-05
-0.5 0.5
ITEM: CELLS c_particles[1] 
16 
12 
12 
13 
18 
18 
19 
22 
13 
10 
20 
9 
14 
25 
20 
15 
21 
12 
15 
15 
18 
21 
23 
16 
16 
13 
16 
18 
14 
20 
5 
29 
16 
23 
12 
14 
14 
19 
18 
13 
8 
14 
11 
9 
23 
10 
18 
12 
17 
29 
14 
23 
13 
15 
12 
9 
21 
11 
13 
22 
14 
16 
11 
18 
22 
11 
17 
14 
13 
16 
12 
23 
14 
16 
15 
18 
8 
10 
13 
14 
16 
15 
12 
17 
19 
12 
22 
22 
16 
19 
23 
16 
22 
22 
18 
13 
13 
8 
20 
19 
