ITEM: TIMESTEP
2500000
ITEM: NUMBER OF CELLS
100
ITEM: BOX BOUNDS ss rr pp
0 0.0001
0 1e-05
-0.5 0.5
ITEM: CELLS c_particles[1] 
17 
10 
20 
21 
17 
21 
18 
18 
22 
18 
12 
15 
24 
14 
8 
23 
18 
16 
9 
15 
13 
16 
18 
16 
15 
11 
13 
17 
12 
17 
13 
12 
26 
10 
19 
16 
22 
18 
17 
14 
18 
21 
17 
16 
23 
13 
19 
17 
11 
13 
12 
15 
20 
15 
24 
13 
12 
18 
16 
11 
17 
25 
18 
11 
12 
14 
22 
13 
14 
15 
23 
13 
17 
19 
7 
21 
14 
16 
15 
13 
12 
18 
16 
13 
18 
14 
12 
18 
13 
17 
14 
15 
18 
10 
15 
20 
10 
15 
16 
22 
