ITEM: TIMESTEP
6450000
ITEM: NUMBER OF CELLS
100
ITEM: BOX BOUNDS ss rr pp
0 0.0001
0 1e-06
-0.5 0.5
ITEM: CELLS c_particles[1] 
16 
21 
21 
17 
16 
14 
16 
17 
21 
11 
20 
18 
12 
16 
15 
15 
13 
14 
15 
30 
9 
15 
13 
12 
15 
18 
12 
13 
14 
19 
14 
11 
17 
20 
14 
20 
15 
14 
20 
13 
22 
18 
14 
18 
18 
24 
16 
22 
14 
20 
17 
19 
18 
13 
14 
13 
20 
11 
12 
18 
15 
17 
20 
19 
12 
11 
12 
27 
15 
17 
17 
15 
17 
12 
19 
10 
9 
12 
18 
14 
16 
19 
25 
12 
11 
23 
15 
18 
28 
9 
10 
16 
11 
11 
17 
21 
15 
9 
19 
10 
