ITEM: TIMESTEP
61000000
ITEM: NUMBER OF CELLS
100
ITEM: BOX BOUNDS ss rr pp
0 0.0001
0 1e-05
-0.5 0.5
ITEM: CELLS c_particles[1] 
17 
19 
11 
18 
17 
25 
16 
16 
17 
21 
13 
18 
17 
12 
17 
13 
16 
13 
20 
13 
19 
26 
13 
24 
16 
14 
17 
15 
15 
18 
15 
15 
15 
15 
16 
18 
17 
20 
14 
20 
14 
11 
20 
19 
15 
11 
12 
16 
16 
9 
12 
15 
15 
18 
12 
12 
12 
24 
22 
17 
23 
15 
20 
7 
14 
25 
14 
16 
12 
19 
21 
15 
17 
21 
15 
12 
10 
10 
17 
8 
15 
13 
21 
15 
15 
13 
21 
14 
9 
20 
15 
17 
13 
13 
24 
16 
14 
23 
12 
13 
