ITEM: TIMESTEP
62600000
ITEM: NUMBER OF CELLS
100
ITEM: BOX BOUNDS ss rr pp
0 0.0001
0 1e-05
-0.5 0.5
ITEM: CELLS c_particles[1] 
15 
18 
19 
13 
30 
20 
17 
14 
21 
11 
23 
16 
7 
14 
18 
16 
13 
11 
16 
18 
15 
14 
15 
14 
10 
6 
13 
21 
20 
22 
19 
14 
14 
19 
15 
15 
19 
17 
21 
17 
9 
14 
13 
20 
19 
15 
25 
9 
17 
16 
15 
12 
21 
15 
16 
11 
23 
16 
15 
18 
16 
14 
11 
22 
17 
12 
16 
13 
21 
21 
15 
14 
17 
19 
15 
18 
15 
13 
19 
17 
8 
17 
15 
13 
16 
17 
14 
19 
19 
17 
18 
16 
13 
10 
21 
14 
18 
12 
14 
15 
