ITEM: TIMESTEP
88100000
ITEM: NUMBER OF CELLS
100
ITEM: BOX BOUNDS ss rr pp
0 0.0001
0 1e-05
-0.5 0.5
ITEM: CELLS c_particles[1] 
22 
23 
22 
16 
19 
18 
18 
22 
14 
13 
17 
9 
18 
17 
17 
19 
17 
12 
23 
17 
10 
23 
13 
12 
18 
10 
8 
22 
18 
10 
15 
11 
15 
12 
15 
25 
14 
12 
19 
17 
23 
12 
12 
15 
18 
17 
12 
20 
13 
17 
9 
15 
18 
10 
13 
12 
10 
16 
14 
21 
14 
15 
19 
16 
23 
26 
14 
19 
16 
19 
23 
18 
11 
15 
15 
14 
12 
14 
15 
9 
10 
12 
17 
23 
10 
15 
18 
25 
12 
14 
18 
11 
12 
23 
20 
13 
22 
9 
23 
17 
