ITEM: TIMESTEP
3970000
ITEM: NUMBER OF CELLS
100
ITEM: BOX BOUNDS ss rr pp
0 0.0001
0 1e-06
-0.5 0.5
ITEM: CELLS c_particles[1] 
14 
15 
26 
11 
17 
11 
15 
10 
19 
17 
16 
13 
24 
19 
18 
20 
13 
16 
12 
20 
18 
26 
13 
16 
21 
11 
18 
15 
18 
8 
17 
14 
16 
9 
20 
13 
9 
14 
17 
19 
18 
24 
19 
19 
19 
16 
20 
20 
20 
19 
18 
21 
18 
12 
14 
27 
15 
19 
15 
15 
21 
12 
16 
13 
18 
11 
13 
18 
14 
19 
8 
12 
16 
16 
17 
20 
13 
13 
17 
18 
13 
11 
11 
16 
12 
15 
12 
19 
16 
16 
14 
13 
22 
10 
12 
10 
17 
21 
15 
14 
