ITEM: TIMESTEP
9220000
ITEM: NUMBER OF CELLS
100
ITEM: BOX BOUNDS ss rr pp
0 0.0001
0 1e-06
-0.5 0.5
ITEM: CELLS c_particles[1] 
18 
25 
20 
17 
26 
11 
16 
17 
19 
21 
21 
14 
14 
15 
15 
14 
20 
17 
12 
13 
11 
14 
16 
12 
14 
11 
20 
14 
14 
17 
19 
14 
13 
15 
24 
19 
14 
19 
11 
17 
18 
16 
15 
15 
11 
20 
23 
23 
12 
14 
15 
20 
28 
18 
18 
8 
10 
19 
13 
8 
14 
15 
15 
12 
17 
18 
16 
17 
16 
13 
9 
11 
13 
14 
15 
9 
17 
8 
9 
20 
18 
19 
24 
12 
15 
19 
15 
16 
19 
14 
26 
15 
10 
16 
13 
18 
18 
21 
18 
19 
