ITEM: TIMESTEP
20900000
ITEM: NUMBER OF CELLS
100
ITEM: BOX BOUNDS ss rr pp
0 0.0001
0 1e-05
-0.5 0.5
ITEM: CELLS c_particles[1] 
15 
21 
18 
20 
13 
14 
13 
14 
16 
15 
15 
19 
19 
14 
16 
14 
14 
24 
11 
18 
15 
17 
15 
11 
21 
14 
7 
23 
13 
22 
15 
19 
11 
14 
23 
15 
14 
11 
13 
17 
14 
17 
11 
21 
18 
20 
14 
21 
18 
13 
14 
16 
10 
17 
11 
11 
14 
16 
18 
17 
19 
20 
17 
16 
13 
11 
12 
15 
13 
24 
18 
16 
11 
24 
12 
18 
13 
20 
15 
22 
16 
18 
18 
18 
15 
18 
16 
17 
22 
16 
17 
14 
14 
20 
10 
17 
13 
14 
17 
17 
