ITEM: TIMESTEP
83500000
ITEM: NUMBER OF CELLS
100
ITEM: BOX BOUNDS ss rr pp
0 0.0001
0 1e-05
-0.5 0.5
ITEM: CELLS c_particles[1] 
6 
23 
11 
15 
13 
23 
13 
25 
20 
18 
17 
18 
9 
18 
14 
22 
17 
20 
12 
17 
18 
13 
15 
19 
13 
17 
9 
12 
18 
11 
23 
12 
15 
12 
8 
14 
11 
14 
14 
17 
23 
15 
23 
18 
19 
19 
22 
15 
19 
15 
15 
12 
17 
15 
11 
12 
16 
21 
22 
8 
13 
21 
14 
28 
14 
15 
18 
18 
15 
12 
17 
17 
17 
18 
7 
14 
11 
17 
12 
20 
13 
23 
12 
11 
16 
16 
13 
22 
17 
19 
21 
19 
13 
15 
16 
14 
19 
13 
21 
16 
