ITEM: TIMESTEP
87300000
ITEM: NUMBER OF CELLS
100
ITEM: BOX BOUNDS ss rr pp
0 0.0001
0 1e-05
-0.5 0.5
ITEM: CELLS c_particles[1] 
19 
14 
21 
17 
15 
14 
18 
16 
15 
19 
15 
11 
12 
15 
19 
10 
15 
15 
10 
13 
17 
17 
12 
17 
13 
17 
14 
15 
15 
23 
14 
18 
17 
11 
14 
15 
17 
17 
16 
21 
18 
19 
19 
17 
18 
18 
19 
20 
12 
14 
17 
16 
16 
17 
8 
16 
14 
15 
20 
22 
13 
16 
13 
24 
24 
14 
22 
18 
16 
13 
14 
12 
12 
15 
16 
13 
15 
24 
13 
16 
13 
10 
8 
15 
20 
17 
15 
21 
18 
14 
19 
14 
16 
15 
21 
15 
24 
16 
13 
15 
