ITEM: TIMESTEP
4640000
ITEM: NUMBER OF CELLS
100
ITEM: BOX BOUNDS ss rr pp
0 0.0001
0 1e-06
-0.5 0.5
ITEM: CELLS c_particles[1] 
20 
14 
15 
21 
13 
18 
19 
14 
19 
28 
15 
17 
23 
21 
18 
20 
16 
15 
14 
15 
21 
14 
22 
18 
8 
13 
19 
22 
19 
19 
14 
8 
19 
19 
5 
20 
24 
19 
18 
19 
16 
18 
20 
17 
28 
10 
15 
12 
19 
18 
19 
11 
14 
19 
12 
16 
10 
10 
18 
13 
15 
14 
15 
20 
16 
12 
23 
11 
14 
18 
12 
18 
10 
10 
16 
21 
17 
16 
11 
14 
12 
16 
17 
14 
11 
16 
15 
11 
23 
12 
11 
19 
16 
11 
15 
18 
10 
13 
12 
15 
