ITEM: TIMESTEP
52400000
ITEM: NUMBER OF CELLS
100
ITEM: BOX BOUNDS ss rr pp
0 0.0001
0 1e-05
-0.5 0.5
ITEM: CELLS c_particles[1] 
8 
9 
21 
19 
21 
15 
18 
16 
17 
18 
17 
20 
17 
19 
14 
16 
24 
19 
16 
15 
14 
14 
15 
15 
19 
18 
21 
15 
15 
18 
25 
19 
11 
14 
14 
10 
21 
14 
17 
8 
10 
19 
16 
17 
14 
19 
12 
13 
19 
17 
14 
17 
9 
15 
11 
11 
15 
19 
14 
15 
12 
14 
22 
18 
19 
19 
18 
19 
18 
11 
15 
21 
14 
14 
12 
13 
19 
15 
9 
18 
20 
18 
12 
22 
14 
20 
12 
17 
19 
18 
19 
7 
17 
19 
19 
19 
21 
11 
10 
14 
