ITEM: TIMESTEP
42800000
ITEM: NUMBER OF CELLS
100
ITEM: BOX BOUNDS ss rr pp
0 0.0001
0 1e-05
-0.5 0.5
ITEM: CELLS c_particles[1] 
12 
18 
11 
16 
20 
15 
19 
11 
12 
14 
18 
16 
18 
17 
19 
8 
14 
20 
17 
20 
25 
20 
20 
11 
16 
20 
8 
19 
14 
14 
23 
16 
16 
24 
12 
15 
13 
10 
18 
18 
15 
9 
14 
15 
12 
12 
12 
17 
4 
13 
20 
16 
20 
9 
16 
15 
18 
18 
21 
19 
17 
18 
13 
10 
17 
18 
16 
21 
17 
19 
22 
15 
16 
14 
15 
15 
14 
21 
18 
13 
9 
13 
13 
29 
17 
19 
10 
23 
19 
18 
14 
18 
15 
12 
18 
14 
14 
26 
10 
18 
