ITEM: TIMESTEP
9910000
ITEM: NUMBER OF CELLS
100
ITEM: BOX BOUNDS ss rr pp
0 0.0001
0 1e-06
-0.5 0.5
ITEM: CELLS c_particles[1] 
18 
22 
20 
17 
20 
18 
21 
14 
13 
17 
22 
11 
16 
11 
16 
10 
16 
14 
17 
12 
18 
23 
22 
11 
15 
29 
23 
6 
19 
13 
9 
19 
12 
11 
15 
15 
14 
9 
23 
13 
17 
30 
17 
22 
19 
13 
24 
12 
9 
15 
12 
7 
20 
12 
21 
16 
19 
17 
15 
26 
21 
13 
20 
20 
14 
15 
14 
14 
16 
18 
12 
12 
21 
13 
16 
15 
19 
17 
12 
15 
14 
16 
18 
16 
19 
15 
7 
21 
17 
5 
15 
20 
15 
11 
14 
14 
15 
13 
16 
15 
