ITEM: TIMESTEP
74600000
ITEM: NUMBER OF CELLS
100
ITEM: BOX BOUNDS ss rr pp
0 0.0001
0 1e-05
-0.5 0.5
ITEM: CELLS c_particles[1] 
19 
19 
18 
18 
9 
16 
13 
17 
23 
18 
11 
13 
6 
13 
15 
18 
14 
17 
19 
12 
15 
18 
15 
16 
20 
14 
18 
18 
12 
23 
24 
12 
17 
23 
23 
15 
15 
15 
13 
18 
14 
14 
13 
13 
17 
19 
15 
12 
15 
13 
19 
19 
8 
15 
14 
12 
13 
22 
18 
12 
22 
16 
14 
19 
15 
18 
18 
21 
16 
22 
16 
15 
8 
20 
16 
20 
11 
21 
15 
13 
14 
23 
14 
19 
15 
17 
15 
17 
17 
17 
17 
13 
18 
18 
16 
15 
17 
8 
13 
12 
