ITEM: TIMESTEP
98600000
ITEM: NUMBER OF CELLS
100
ITEM: BOX BOUNDS ss rr pp
0 0.0001
0 1e-05
-0.5 0.5
ITEM: CELLS c_particles[1] 
14 
21 
17 
24 
14 
19 
19 
20 
22 
19 
14 
16 
20 
20 
17 
12 
14 
12 
18 
17 
19 
15 
17 
16 
23 
15 
14 
14 
16 
22 
7 
13 
18 
18 
12 
18 
23 
12 
17 
16 
12 
21 
10 
10 
12 
12 
17 
17 
18 
20 
12 
22 
18 
17 
21 
18 
17 
10 
12 
11 
23 
8 
17 
19 
11 
10 
12 
17 
13 
15 
15 
15 
11 
19 
17 
15 
13 
20 
13 
16 
23 
12 
14 
6 
14 
14 
10 
15 
21 
14 
23 
11 
23 
22 
16 
20 
16 
13 
19 
14 
