ITEM: TIMESTEP
82000000
ITEM: NUMBER OF CELLS
100
ITEM: BOX BOUNDS ss rr pp
0 0.0001
0 1e-05
-0.5 0.5
ITEM: CELLS c_particles[1] 
12 
15 
22 
16 
13 
19 
19 
16 
14 
14 
13 
14 
24 
20 
21 
16 
15 
16 
22 
18 
17 
17 
18 
13 
13 
16 
16 
14 
15 
15 
15 
17 
16 
19 
19 
20 
9 
14 
17 
12 
12 
18 
15 
12 
10 
13 
15 
17 
12 
17 
16 
29 
5 
12 
17 
18 
11 
17 
19 
20 
13 
14 
14 
20 
17 
9 
18 
14 
28 
12 
16 
10 
12 
23 
14 
17 
13 
16 
11 
12 
12 
19 
15 
19 
23 
20 
21 
9 
21 
24 
13 
14 
23 
23 
10 
12 
20 
13 
12 
18 
