ITEM: TIMESTEP
73500000
ITEM: NUMBER OF CELLS
100
ITEM: BOX BOUNDS ss rr pp
0 0.0001
0 1e-05
-0.5 0.5
ITEM: CELLS c_particles[1] 
16 
18 
22 
18 
15 
18 
14 
19 
21 
14 
6 
14 
15 
12 
15 
24 
10 
8 
17 
12 
17 
12 
24 
14 
12 
12 
19 
20 
20 
16 
16 
15 
11 
18 
23 
13 
10 
15 
13 
15 
19 
19 
12 
17 
18 
23 
25 
18 
17 
20 
15 
19 
12 
15 
13 
16 
15 
16 
17 
12 
13 
19 
12 
13 
11 
16 
19 
11 
13 
22 
21 
23 
21 
9 
17 
18 
12 
21 
14 
17 
11 
17 
19 
21 
18 
15 
20 
21 
10 
16 
11 
15 
14 
20 
14 
14 
14 
12 
18 
17 
