ITEM: TIMESTEP
64600000
ITEM: NUMBER OF CELLS
100
ITEM: BOX BOUNDS ss rr pp
0 0.0001
0 1e-05
-0.5 0.5
ITEM: CELLS c_particles[1] 
23 
18 
18 
18 
19 
17 
18 
13 
18 
18 
9 
18 
21 
25 
20 
14 
14 
15 
16 
12 
14 
16 
8 
11 
21 
11 
15 
19 
15 
18 
16 
17 
16 
26 
18 
20 
10 
18 
12 
20 
15 
9 
15 
19 
16 
19 
15 
11 
11 
13 
20 
10 
9 
17 
18 
18 
14 
15 
13 
10 
12 
22 
10 
14 
21 
17 
17 
15 
17 
15 
10 
18 
20 
17 
16 
12 
20 
11 
15 
13 
21 
10 
21 
10 
16 
21 
19 
15 
14 
18 
18 
15 
21 
14 
16 
12 
12 
21 
19 
23 
