ITEM: TIMESTEP
9380000
ITEM: NUMBER OF CELLS
100
ITEM: BOX BOUNDS ss rr pp
0 0.0001
0 1e-06
-0.5 0.5
ITEM: CELLS c_particles[1] 
22 
19 
18 
15 
14 
15 
16 
21 
23 
19 
15 
22 
17 
23 
13 
24 
22 
28 
15 
12 
12 
13 
17 
16 
18 
10 
15 
16 
14 
13 
7 
19 
19 
16 
16 
16 
18 
18 
17 
14 
25 
15 
17 
12 
17 
12 
23 
21 
21 
13 
21 
15 
20 
19 
13 
14 
10 
22 
16 
11 
12 
12 
16 
25 
16 
21 
16 
15 
14 
15 
13 
9 
16 
9 
17 
13 
13 
13 
16 
10 
12 
11 
12 
14 
13 
25 
10 
16 
18 
19 
14 
23 
13 
7 
12 
15 
10 
23 
14 
14 
