ITEM: TIMESTEP
90000000
ITEM: NUMBER OF CELLS
100
ITEM: BOX BOUNDS ss rr pp
0 0.0001
0 1e-05
-0.5 0.5
ITEM: CELLS c_particles[1] 
21 
19 
17 
19 
15 
17 
20 
17 
18 
15 
15 
15 
26 
22 
18 
15 
14 
17 
6 
16 
19 
12 
12 
14 
14 
18 
17 
12 
16 
18 
13 
23 
19 
15 
17 
14 
20 
16 
14 
14 
16 
17 
22 
13 
18 
11 
17 
11 
13 
18 
18 
20 
21 
14 
20 
12 
16 
16 
15 
13 
21 
15 
12 
15 
17 
15 
17 
15 
10 
17 
16 
19 
11 
17 
17 
19 
13 
18 
14 
14 
12 
14 
21 
14 
17 
17 
6 
16 
16 
19 
14 
13 
19 
21 
15 
15 
16 
19 
10 
14 
