ITEM: TIMESTEP
35500000
ITEM: NUMBER OF CELLS
100
ITEM: BOX BOUNDS ss rr pp
0 0.0001
0 1e-05
-0.5 0.5
ITEM: CELLS c_particles[1] 
16 
26 
16 
21 
12 
20 
15 
23 
14 
22 
17 
16 
16 
22 
13 
18 
20 
19 
10 
27 
16 
12 
13 
20 
18 
19 
18 
17 
14 
8 
13 
15 
14 
19 
13 
18 
17 
21 
12 
18 
15 
10 
17 
28 
19 
15 
16 
9 
15 
15 
18 
18 
19 
9 
14 
15 
12 
10 
15 
13 
15 
12 
14 
17 
9 
13 
10 
19 
16 
19 
9 
13 
11 
11 
16 
18 
14 
20 
15 
15 
14 
21 
12 
11 
18 
13 
18 
14 
19 
18 
15 
21 
20 
14 
19 
18 
18 
17 
21 
13 
