ITEM: TIMESTEP
96700000
ITEM: NUMBER OF CELLS
100
ITEM: BOX BOUNDS ss rr pp
0 0.0001
0 1e-05
-0.5 0.5
ITEM: CELLS c_particles[1] 
25 
17 
14 
12 
19 
18 
19 
15 
19 
22 
16 
17 
16 
16 
12 
14 
12 
15 
12 
13 
14 
23 
17 
17 
18 
21 
16 
17 
12 
10 
15 
12 
11 
12 
15 
12 
14 
10 
18 
13 
21 
27 
21 
20 
19 
14 
19 
17 
16 
17 
18 
15 
16 
19 
18 
11 
19 
11 
23 
17 
15 
14 
19 
19 
26 
13 
16 
18 
13 
16 
19 
11 
11 
13 
14 
12 
14 
12 
14 
13 
20 
17 
9 
14 
13 
19 
12 
15 
16 
15 
25 
13 
24 
11 
17 
11 
22 
19 
17 
11 
