ITEM: TIMESTEP
5080000
ITEM: NUMBER OF CELLS
100
ITEM: BOX BOUNDS ss rr pp
0 0.0001
0 1e-06
-0.5 0.5
ITEM: CELLS c_particles[1] 
24 
17 
14 
10 
10 
12 
9 
18 
12 
24 
11 
16 
13 
17 
17 
19 
16 
19 
21 
24 
21 
22 
14 
15 
19 
11 
13 
19 
14 
21 
19 
20 
14 
13 
9 
10 
20 
17 
14 
15 
22 
14 
19 
14 
23 
16 
14 
14 
16 
17 
12 
11 
22 
15 
19 
14 
13 
17 
22 
17 
14 
20 
16 
7 
19 
17 
26 
19 
15 
14 
19 
12 
18 
18 
19 
17 
14 
19 
20 
12 
11 
19 
16 
13 
25 
14 
14 
18 
12 
10 
16 
15 
12 
14 
13 
14 
11 
25 
10 
9 
