ITEM: TIMESTEP
57100000
ITEM: NUMBER OF CELLS
100
ITEM: BOX BOUNDS ss rr pp
0 0.0001
0 1e-05
-0.5 0.5
ITEM: CELLS c_particles[1] 
15 
17 
13 
21 
17 
13 
15 
15 
13 
18 
16 
26 
15 
17 
18 
15 
17 
12 
21 
18 
14 
25 
13 
16 
14 
12 
15 
12 
23 
14 
14 
22 
19 
12 
16 
15 
18 
13 
20 
18 
17 
15 
16 
20 
15 
17 
18 
12 
22 
23 
20 
12 
11 
12 
16 
14 
16 
12 
19 
16 
13 
17 
14 
25 
15 
15 
19 
21 
22 
14 
7 
14 
17 
11 
14 
23 
26 
14 
24 
12 
8 
14 
14 
18 
18 
15 
15 
13 
19 
11 
14 
16 
12 
17 
15 
15 
9 
10 
17 
13 
