ITEM: TIMESTEP
3540000
ITEM: NUMBER OF CELLS
100
ITEM: BOX BOUNDS ss rr pp
0 0.0001
0 1e-06
-0.5 0.5
ITEM: CELLS c_particles[1] 
20 
16 
9 
17 
14 
21 
18 
18 
19 
21 
16 
20 
16 
10 
14 
16 
14 
14 
13 
11 
25 
17 
19 
9 
12 
15 
12 
17 
16 
13 
15 
12 
18 
11 
18 
14 
18 
26 
23 
15 
15 
17 
17 
18 
15 
14 
19 
18 
13 
13 
22 
10 
21 
17 
18 
17 
22 
24 
14 
7 
12 
12 
20 
12 
17 
21 
15 
18 
20 
11 
13 
14 
16 
17 
17 
15 
18 
18 
12 
20 
14 
16 
14 
16 
15 
22 
17 
16 
18 
10 
16 
16 
18 
11 
15 
11 
15 
18 
19 
12 
