ITEM: TIMESTEP
6020000
ITEM: NUMBER OF CELLS
100
ITEM: BOX BOUNDS ss rr pp
0 0.0001
0 1e-06
-0.5 0.5
ITEM: CELLS c_particles[1] 
14 
16 
15 
17 
19 
12 
13 
14 
18 
18 
20 
16 
20 
15 
15 
12 
18 
17 
9 
13 
13 
16 
15 
19 
8 
12 
11 
18 
18 
17 
16 
23 
11 
14 
20 
13 
18 
20 
19 
20 
18 
13 
17 
20 
18 
18 
12 
19 
16 
14 
20 
17 
12 
23 
18 
15 
16 
11 
13 
18 
18 
15 
18 
14 
18 
12 
14 
16 
25 
16 
15 
12 
17 
20 
26 
16 
16 
15 
16 
15 
14 
19 
21 
13 
21 
20 
14 
18 
10 
16 
14 
14 
16 
11 
15 
11 
22 
10 
13 
14 
