ITEM: TIMESTEP
5350000
ITEM: NUMBER OF CELLS
100
ITEM: BOX BOUNDS ss rr pp
0 0.0001
0 1e-06
-0.5 0.5
ITEM: CELLS c_particles[1] 
21 
21 
14 
18 
22 
16 
17 
16 
15 
20 
16 
20 
14 
17 
12 
12 
19 
11 
27 
19 
23 
13 
19 
23 
18 
14 
26 
7 
22 
8 
11 
17 
11 
14 
15 
20 
18 
18 
16 
14 
13 
15 
22 
16 
18 
13 
19 
17 
17 
11 
14 
8 
30 
14 
19 
18 
13 
17 
16 
19 
23 
15 
13 
18 
13 
16 
24 
14 
10 
16 
18 
15 
14 
15 
19 
16 
13 
16 
15 
13 
16 
12 
12 
12 
16 
9 
18 
10 
8 
9 
17 
12 
16 
15 
18 
15 
14 
15 
23 
14 
