ITEM: TIMESTEP
71400000
ITEM: NUMBER OF CELLS
100
ITEM: BOX BOUNDS ss rr pp
0 0.0001
0 1e-05
-0.5 0.5
ITEM: CELLS c_particles[1] 
15 
16 
12 
14 
19 
17 
24 
14 
16 
14 
18 
15 
17 
27 
13 
9 
10 
15 
18 
9 
20 
21 
18 
14 
20 
13 
17 
24 
14 
18 
14 
10 
9 
19 
15 
18 
20 
14 
20 
19 
15 
10 
12 
19 
16 
24 
24 
16 
16 
17 
20 
6 
17 
17 
15 
18 
12 
17 
12 
10 
12 
15 
16 
19 
14 
20 
13 
22 
21 
18 
21 
21 
16 
18 
13 
11 
16 
23 
17 
12 
12 
20 
12 
15 
15 
13 
12 
16 
12 
12 
15 
16 
16 
15 
17 
11 
22 
14 
24 
11 
