ITEM: TIMESTEP
7370000
ITEM: NUMBER OF CELLS
100
ITEM: BOX BOUNDS ss rr pp
0 0.0001
0 1e-06
-0.5 0.5
ITEM: CELLS c_particles[1] 
15 
21 
15 
14 
16 
24 
16 
20 
17 
25 
18 
21 
11 
16 
16 
11 
8 
18 
10 
15 
18 
14 
20 
14 
12 
24 
12 
19 
10 
17 
15 
15 
24 
15 
14 
18 
21 
24 
19 
17 
14 
15 
16 
15 
16 
22 
14 
19 
18 
15 
22 
9 
24 
22 
20 
15 
18 
12 
12 
16 
14 
23 
24 
14 
16 
17 
10 
18 
21 
19 
20 
10 
10 
9 
14 
5 
12 
9 
11 
17 
10 
9 
13 
18 
11 
13 
19 
26 
20 
5 
21 
19 
13 
12 
13 
14 
14 
23 
12 
19 
