ITEM: TIMESTEP
1480000
ITEM: NUMBER OF CELLS
100
ITEM: BOX BOUNDS ss rr pp
0 0.0001
0 1e-06
-0.5 0.5
ITEM: CELLS c_particles[1] 
12 
15 
9 
19 
12 
17 
17 
17 
10 
12 
11 
19 
23 
17 
19 
22 
11 
12 
16 
14 
24 
20 
18 
16 
16 
23 
16 
18 
22 
20 
23 
9 
17 
17 
19 
13 
14 
25 
24 
24 
12 
12 
17 
18 
13 
13 
13 
12 
22 
15 
17 
15 
15 
16 
13 
14 
12 
20 
7 
17 
22 
15 
14 
10 
19 
15 
21 
11 
12 
13 
18 
20 
9 
17 
14 
19 
22 
19 
12 
20 
19 
21 
11 
14 
13 
14 
18 
13 
15 
18 
14 
9 
15 
13 
16 
16 
13 
20 
13 
18 
