ITEM: TIMESTEP
80000
ITEM: NUMBER OF CELLS
100
ITEM: BOX BOUNDS ss rr pp
0 0.0001
0 1e-06
-0.5 0.5
ITEM: CELLS c_particles[1] 
184 
191 
165 
193 
170 
147 
155 
152 
163 
171 
173 
152 
170 
176 
180 
166 
175 
161 
166 
157 
182 
140 
181 
186 
144 
162 
184 
144 
186 
174 
160 
176 
161 
165 
190 
149 
161 
158 
155 
172 
153 
163 
150 
165 
181 
159 
155 
168 
163 
163 
129 
182 
147 
153 
180 
167 
171 
148 
137 
138 
166 
164 
165 
146 
189 
143 
177 
158 
153 
145 
130 
171 
137 
147 
168 
147 
161 
136 
161 
140 
167 
156 
167 
143 
167 
136 
138 
136 
158 
127 
159 
145 
133 
150 
167 
155 
153 
144 
146 
180 
