ITEM: TIMESTEP
31100000
ITEM: NUMBER OF CELLS
100
ITEM: BOX BOUNDS ss rr pp
0 0.0001
0 1e-05
-0.5 0.5
ITEM: CELLS c_particles[1] 
24 
14 
19 
17 
21 
15 
17 
18 
12 
16 
7 
6 
15 
12 
13 
15 
20 
17 
17 
21 
10 
13 
17 
13 
17 
18 
12 
18 
15 
17 
9 
14 
20 
18 
27 
16 
13 
12 
22 
17 
17 
16 
14 
17 
23 
23 
10 
18 
16 
15 
22 
23 
15 
12 
15 
16 
17 
18 
17 
19 
9 
9 
16 
15 
18 
12 
17 
13 
15 
16 
17 
15 
15 
16 
17 
18 
21 
8 
17 
12 
17 
13 
19 
11 
10 
20 
15 
22 
16 
18 
17 
20 
18 
13 
18 
19 
19 
18 
12 
12 
