ITEM: TIMESTEP
5590000
ITEM: NUMBER OF CELLS
100
ITEM: BOX BOUNDS ss rr pp
0 0.0001
0 1e-06
-0.5 0.5
ITEM: CELLS c_particles[1] 
18 
12 
12 
19 
16 
13 
30 
15 
15 
12 
19 
12 
11 
17 
17 
18 
26 
13 
20 
7 
15 
9 
13 
16 
17 
23 
15 
12 
24 
16 
13 
16 
17 
21 
17 
12 
22 
14 
13 
11 
12 
9 
21 
19 
25 
26 
23 
11 
14 
17 
18 
17 
16 
20 
11 
16 
17 
11 
14 
22 
16 
12 
15 
14 
13 
13 
14 
22 
16 
15 
13 
17 
19 
16 
20 
15 
19 
15 
19 
12 
17 
11 
13 
23 
14 
16 
16 
14 
17 
17 
14 
12 
14 
17 
12 
15 
22 
16 
14 
14 
