ITEM: TIMESTEP
55900000
ITEM: NUMBER OF CELLS
100
ITEM: BOX BOUNDS ss rr pp
0 0.0001
0 1e-05
-0.5 0.5
ITEM: CELLS c_particles[1] 
10 
18 
14 
12 
19 
17 
18 
21 
21 
22 
20 
12 
15 
9 
27 
16 
19 
15 
15 
14 
22 
21 
16 
20 
12 
16 
18 
13 
18 
16 
19 
16 
18 
16 
12 
14 
18 
17 
20 
22 
17 
16 
10 
20 
18 
15 
16 
16 
21 
16 
14 
9 
13 
17 
14 
15 
11 
15 
14 
17 
14 
16 
18 
17 
14 
12 
6 
23 
13 
16 
11 
16 
18 
15 
12 
17 
20 
19 
13 
21 
14 
17 
16 
19 
23 
16 
14 
13 
16 
13 
9 
13 
10 
16 
24 
10 
13 
20 
13 
18 
