ITEM: TIMESTEP
1530000
ITEM: NUMBER OF CELLS
100
ITEM: BOX BOUNDS ss rr pp
0 0.0001
0 1e-06
-0.5 0.5
ITEM: CELLS c_particles[1] 
27 
21 
15 
12 
12 
21 
20 
12 
25 
9 
15 
15 
19 
15 
9 
24 
20 
17 
14 
15 
16 
22 
12 
17 
17 
12 
23 
17 
13 
24 
14 
14 
12 
15 
20 
17 
19 
21 
20 
13 
12 
13 
9 
17 
26 
9 
14 
19 
15 
16 
14 
12 
20 
16 
14 
16 
20 
14 
16 
16 
17 
17 
17 
13 
20 
13 
16 
15 
19 
16 
16 
15 
21 
18 
9 
15 
14 
16 
10 
17 
19 
14 
24 
19 
15 
20 
15 
14 
9 
19 
13 
11 
10 
17 
14 
13 
14 
16 
6 
21 
