ITEM: TIMESTEP
3800000
ITEM: NUMBER OF CELLS
100
ITEM: BOX BOUNDS ss rr pp
0 0.0001
0 1e-05
-0.5 0.5
ITEM: CELLS c_particles[1] 
18 
24 
12 
17 
14 
13 
18 
13 
10 
10 
10 
20 
15 
16 
18 
8 
19 
15 
14 
21 
23 
9 
20 
21 
18 
21 
18 
15 
16 
13 
22 
22 
11 
16 
14 
12 
10 
20 
19 
15 
18 
19 
13 
12 
20 
13 
16 
19 
13 
16 
14 
15 
15 
14 
14 
14 
13 
16 
21 
20 
14 
17 
10 
15 
23 
9 
19 
12 
17 
16 
15 
14 
11 
13 
17 
15 
15 
11 
19 
18 
12 
13 
16 
29 
15 
16 
22 
18 
19 
12 
14 
18 
20 
13 
12 
21 
22 
18 
18 
17 
