ITEM: TIMESTEP
7540000
ITEM: NUMBER OF CELLS
100
ITEM: BOX BOUNDS ss rr pp
0 0.0001
0 1e-06
-0.5 0.5
ITEM: CELLS c_particles[1] 
25 
20 
18 
19 
16 
20 
15 
17 
22 
17 
21 
16 
20 
19 
21 
30 
12 
17 
16 
14 
13 
14 
16 
25 
14 
11 
19 
20 
24 
17 
13 
21 
21 
11 
15 
10 
14 
11 
10 
17 
13 
11 
18 
13 
13 
18 
14 
12 
11 
15 
21 
15 
19 
14 
16 
22 
12 
20 
18 
14 
12 
15 
10 
18 
14 
15 
17 
13 
17 
19 
16 
10 
16 
15 
19 
10 
13 
16 
12 
15 
17 
19 
22 
14 
18 
16 
12 
18 
14 
15 
6 
23 
18 
13 
15 
15 
15 
13 
13 
12 
