ITEM: TIMESTEP
92800000
ITEM: NUMBER OF CELLS
100
ITEM: BOX BOUNDS ss rr pp
0 0.0001
0 1e-05
-0.5 0.5
ITEM: CELLS c_particles[1] 
13 
14 
23 
15 
20 
19 
18 
15 
19 
15 
15 
16 
19 
11 
21 
13 
19 
16 
10 
19 
19 
20 
9 
16 
13 
16 
18 
19 
16 
17 
16 
16 
16 
14 
14 
13 
11 
14 
20 
14 
17 
17 
13 
22 
12 
11 
19 
13 
13 
8 
17 
20 
17 
22 
21 
15 
15 
17 
18 
17 
18 
19 
20 
20 
10 
8 
20 
10 
14 
10 
19 
17 
18 
10 
20 
10 
18 
16 
21 
11 
12 
16 
23 
17 
14 
17 
18 
15 
18 
12 
17 
17 
9 
18 
27 
15 
17 
12 
12 
20 
