ITEM: TIMESTEP
8080000
ITEM: NUMBER OF CELLS
100
ITEM: BOX BOUNDS ss rr pp
0 0.0001
0 1e-06
-0.5 0.5
ITEM: CELLS c_particles[1] 
12 
14 
17 
16 
23 
12 
24 
16 
9 
12 
16 
17 
13 
14 
9 
17 
18 
20 
21 
12 
10 
15 
29 
13 
19 
19 
21 
17 
15 
20 
23 
18 
25 
15 
18 
24 
14 
12 
20 
19 
24 
25 
18 
18 
9 
17 
19 
11 
15 
20 
19 
18 
16 
14 
10 
10 
15 
14 
13 
14 
13 
14 
10 
18 
13 
11 
21 
11 
16 
13 
12 
15 
13 
19 
14 
12 
13 
14 
14 
18 
16 
6 
18 
27 
15 
14 
16 
19 
17 
12 
14 
21 
16 
12 
15 
11 
18 
16 
16 
20 
