ITEM: TIMESTEP
44600000
ITEM: NUMBER OF CELLS
100
ITEM: BOX BOUNDS ss rr pp
0 0.0001
0 1e-05
-0.5 0.5
ITEM: CELLS c_particles[1] 
22 
10 
17 
8 
22 
12 
16 
14 
12 
20 
13 
13 
17 
17 
18 
13 
27 
8 
17 
19 
14 
12 
15 
13 
18 
25 
21 
18 
18 
18 
24 
13 
14 
16 
17 
17 
7 
18 
17 
16 
12 
23 
9 
15 
20 
17 
13 
19 
24 
16 
16 
17 
21 
15 
18 
18 
14 
11 
16 
21 
14 
9 
16 
18 
17 
19 
18 
17 
14 
11 
19 
11 
17 
20 
24 
11 
20 
19 
15 
11 
15 
12 
17 
14 
12 
18 
13 
11 
15 
11 
14 
14 
15 
16 
14 
20 
15 
17 
17 
19 
