ITEM: TIMESTEP
3250000
ITEM: NUMBER OF CELLS
100
ITEM: BOX BOUNDS ss rr pp
0 0.0001
0 1e-06
-0.5 0.5
ITEM: CELLS c_particles[1] 
19 
19 
9 
15 
12 
17 
16 
18 
20 
19 
15 
21 
19 
19 
13 
12 
16 
17 
19 
14 
10 
16 
13 
15 
9 
18 
24 
13 
21 
18 
22 
16 
17 
15 
24 
13 
10 
10 
13 
17 
23 
22 
13 
14 
14 
13 
18 
19 
17 
15 
15 
14 
24 
21 
17 
18 
17 
14 
10 
14 
16 
15 
18 
18 
19 
19 
18 
17 
18 
16 
16 
11 
23 
13 
14 
17 
16 
19 
9 
15 
13 
13 
21 
9 
10 
11 
13 
19 
15 
21 
12 
12 
21 
17 
13 
21 
15 
15 
15 
12 
