ITEM: TIMESTEP
66500000
ITEM: NUMBER OF CELLS
100
ITEM: BOX BOUNDS ss rr pp
0 0.0001
0 1e-05
-0.5 0.5
ITEM: CELLS c_particles[1] 
19 
18 
19 
19 
15 
12 
16 
20 
14 
13 
20 
22 
18 
10 
24 
15 
11 
16 
12 
12 
18 
22 
17 
13 
9 
14 
19 
13 
14 
12 
16 
23 
13 
20 
14 
13 
17 
11 
16 
14 
21 
16 
16 
17 
19 
22 
17 
13 
21 
11 
12 
16 
13 
19 
18 
18 
8 
23 
17 
12 
11 
14 
21 
15 
15 
17 
18 
13 
17 
16 
12 
23 
14 
23 
22 
12 
13 
12 
24 
13 
16 
19 
10 
18 
17 
14 
12 
20 
9 
18 
12 
13 
15 
18 
15 
19 
19 
15 
17 
17 
