ITEM: TIMESTEP
21700000
ITEM: NUMBER OF CELLS
100
ITEM: BOX BOUNDS ss rr pp
0 0.0001
0 1e-05
-0.5 0.5
ITEM: CELLS c_particles[1] 
17 
13 
18 
19 
16 
14 
15 
8 
17 
14 
19 
16 
15 
20 
7 
16 
15 
16 
11 
19 
11 
14 
16 
18 
15 
14 
19 
12 
22 
13 
12 
17 
20 
14 
17 
18 
13 
13 
18 
12 
16 
14 
22 
14 
13 
22 
12 
18 
20 
16 
10 
14 
17 
14 
15 
14 
13 
26 
18 
17 
19 
18 
12 
17 
19 
17 
18 
21 
8 
18 
14 
16 
16 
10 
20 
12 
17 
17 
18 
8 
12 
17 
21 
16 
22 
22 
22 
12 
19 
10 
24 
16 
19 
15 
15 
19 
20 
16 
17 
13 
