ITEM: TIMESTEP
9020000
ITEM: NUMBER OF CELLS
100
ITEM: BOX BOUNDS ss rr pp
0 0.0001
0 1e-06
-0.5 0.5
ITEM: CELLS c_particles[1] 
24 
17 
19 
16 
11 
17 
15 
15 
13 
18 
13 
20 
11 
23 
13 
22 
23 
10 
12 
10 
20 
19 
20 
16 
18 
17 
16 
20 
13 
10 
19 
19 
17 
15 
19 
18 
13 
19 
22 
18 
15 
13 
19 
17 
21 
15 
20 
10 
19 
18 
21 
13 
17 
13 
15 
14 
15 
18 
12 
19 
15 
14 
17 
15 
15 
16 
13 
10 
18 
14 
19 
13 
9 
18 
28 
15 
13 
14 
15 
9 
15 
12 
18 
11 
8 
18 
16 
16 
12 
16 
19 
10 
16 
18 
16 
18 
21 
14 
17 
15 
