ITEM: TIMESTEP
27700000
ITEM: NUMBER OF CELLS
100
ITEM: BOX BOUNDS ss rr pp
0 0.0001
0 1e-05
-0.5 0.5
ITEM: CELLS c_particles[1] 
18 
9 
18 
18 
24 
25 
22 
12 
16 
13 
18 
14 
10 
16 
16 
11 
8 
22 
19 
16 
16 
19 
17 
16 
20 
12 
21 
20 
14 
14 
20 
20 
15 
16 
17 
17 
13 
19 
14 
18 
12 
15 
13 
21 
18 
13 
13 
14 
16 
13 
17 
14 
17 
13 
13 
6 
22 
15 
14 
7 
11 
18 
10 
20 
11 
14 
25 
21 
20 
21 
18 
20 
22 
10 
21 
13 
12 
18 
16 
25 
10 
14 
9 
23 
16 
19 
12 
16 
20 
13 
19 
12 
9 
17 
16 
14 
20 
14 
20 
12 
