ITEM: TIMESTEP
4520000
ITEM: NUMBER OF CELLS
100
ITEM: BOX BOUNDS ss rr pp
0 0.0001
0 1e-06
-0.5 0.5
ITEM: CELLS f_temp1[*] 
351.856 
338.349 
369.409 
373.611 
384.397 
352.319 
330.238 
326.172 
354.413 
392.07 
392.135 
361.622 
356.66 
310.828 
372.403 
368.212 
376.415 
373.233 
311.081 
384.018 
411.351 
386.054 
355.365 
399.508 
360.29 
385.344 
400.728 
341.405 
357.328 
348.435 
391.719 
379.557 
370.535 
429.171 
359.38 
348.277 
347.307 
362.05 
380.465 
377.593 
350.343 
399.098 
400.802 
369.375 
380.305 
383.248 
361.238 
390.399 
393.487 
374.052 
436.109 
408.935 
392.558 
390.768 
384.279 
387.415 
417.749 
379.77 
401.512 
359.556 
407.478 
373.501 
382.549 
387.431 
395.596 
384.249 
363.737 
365.804 
432.196 
398.76 
394.991 
394.004 
415.815 
381.903 
401.94 
387.718 
382.033 
427.148 
388.818 
410.857 
405.41 
350.992 
417.039 
384.763 
443.176 
419.188 
400.334 
390.193 
442.226 
439.899 
428.703 
418.56 
382.328 
431.243 
426.342 
419.007 
412.06 
384.267 
371.813 
429.625 
