ITEM: TIMESTEP
75000000
ITEM: NUMBER OF CELLS
100
ITEM: BOX BOUNDS ss rr pp
0 0.0001
0 1e-05
-0.5 0.5
ITEM: CELLS f_temp1[*] 
380.617 
393.272 
367.926 
380.456 
372.025 
371.018 
394.186 
380.449 
384.764 
385.71 
360.595 
394.186 
382.21 
367.106 
391.962 
358.818 
366.266 
396.709 
402.58 
384.305 
385.011 
381.089 
400.981 
368.335 
399.431 
395.42 
402.271 
381.458 
403.891 
389.065 
391.38 
380.516 
370.561 
393.557 
382.125 
391.91 
394.035 
376.933 
393.225 
385.362 
382.503 
381.908 
390.073 
395.098 
386.666 
381.192 
382.074 
395.734 
403.72 
387.314 
384.874 
389.159 
378.921 
390.472 
394.57 
382.114 
386.739 
397.46 
392.217 
385.51 
379.639 
394.773 
384.151 
392.797 
402.998 
390.015 
371.554 
393.814 
393.602 
402.404 
392.626 
389.354 
387.498 
384.003 
405.295 
401.552 
389.014 
390.356 
392.541 
380.292 
394.471 
390.987 
400.92 
401.47 
397.925 
411.922 
393.912 
402.202 
406.595 
399.438 
412.267 
392.327 
407.961 
385.558 
390.862 
391.095 
392.155 
403.228 
409.582 
395.753 
