ITEM: TIMESTEP
55100000
ITEM: NUMBER OF CELLS
100
ITEM: BOX BOUNDS ss rr pp
0 0.0001
0 1e-05
-0.5 0.5
ITEM: CELLS f_temp1[*] 
381.562 
374.729 
388.125 
375.436 
373.719 
387.279 
389.692 
373.922 
375.525 
379.564 
397.997 
387.454 
388.007 
371.617 
375.941 
386.348 
386.094 
387.106 
377.802 
383.486 
390.778 
360.487 
380.15 
375.61 
384.01 
388.79 
394.657 
378.432 
373.561 
378.114 
378.644 
380.198 
386.716 
377.785 
382.545 
395.816 
368.295 
383.959 
389.036 
378.511 
371.139 
369.468 
395.38 
380.792 
386.593 
384.138 
377.108 
377.998 
383.664 
389.949 
394.681 
383.581 
394.865 
369.537 
408.13 
390.865 
371.006 
399.71 
384.19 
401.735 
401.626 
381.549 
399.778 
379.971 
383.8 
392.397 
397.318 
378.687 
393.961 
394.168 
389.122 
406.518 
391.954 
392.035 
399.744 
388.84 
386.349 
383.577 
396.686 
414.561 
393.402 
388.201 
376.781 
391.822 
390.088 
398.744 
392.837 
400.382 
397.628 
383.429 
386.183 
403.882 
393.75 
393.248 
382.823 
405.91 
400.044 
387.313 
401.566 
385.599 
