ITEM: TIMESTEP
1750000
ITEM: NUMBER OF CELLS
100
ITEM: BOX BOUNDS ss rr pp
0 0.0001
0 1e-06
-0.5 0.5
ITEM: CELLS f_temp1[*] 
373.786 
300.876 
337.851 
378.79 
363.5 
380.761 
326.415 
336.151 
337.505 
385.433 
374.558 
347.912 
359.976 
383.78 
376.74 
370.209 
291.607 
418.621 
408.997 
366.724 
397.97 
408.65 
383.614 
363.403 
387.694 
372.402 
385.013 
403.48 
352.066 
394.998 
382.249 
397.841 
425.061 
354.609 
412.526 
378.685 
312.275 
306.967 
400.36 
368.404 
358.758 
363.236 
377.9 
385.08 
369.287 
364.801 
386.956 
376.385 
383.608 
388.472 
368.333 
383.817 
351.582 
416.088 
350.222 
393.715 
405.073 
392.141 
364.746 
445.894 
370.202 
435.905 
417.791 
405.054 
370.936 
368.336 
425.276 
399.304 
436.223 
405.815 
414.066 
365.564 
425.046 
405.927 
400.03 
426.572 
410.8 
394.494 
463.699 
457.433 
453.96 
437.514 
412.639 
424.055 
409.437 
401.287 
452.464 
417.812 
399.857 
433.678 
363.917 
389.46 
413.323 
444.603 
365.995 
399.376 
397.278 
410.968 
374.087 
414.249 
