ITEM: TIMESTEP
24600000
ITEM: NUMBER OF CELLS
100
ITEM: BOX BOUNDS ss rr pp
0 0.0001
0 1e-05
-0.5 0.5
ITEM: CELLS f_temp1[*] 
374.541 
371.868 
389.841 
370.026 
371.245 
369.159 
371.23 
373.138 
376.725 
377.701 
382.751 
392.512 
383.265 
376.117 
378.344 
370.733 
377.339 
379.527 
379.293 
372.981 
378.95 
383.785 
366.509 
398.93 
392.485 
383.611 
391.247 
380.923 
387.09 
389.171 
375.968 
386.092 
375.35 
383.863 
373.353 
384.916 
376.575 
385.497 
389.772 
384.265 
385.889 
376.044 
393.095 
389.602 
368.919 
384.027 
393.932 
391.601 
380.318 
389.239 
394.068 
390.383 
404.222 
383.639 
397.389 
386.011 
394.226 
386.891 
384.151 
403.482 
391.606 
381.656 
384.015 
389.377 
393.301 
373.708 
387.365 
400.225 
404.181 
384.595 
393.244 
388.368 
391.109 
392.288 
392.263 
403.072 
392.665 
410.799 
395.116 
389.269 
381.725 
378.335 
379.399 
398.045 
390.93 
397.871 
401.984 
396.15 
398.944 
385.451 
388.488 
399.203 
390.065 
403.184 
407.048 
387.242 
422.679 
410.514 
399.455 
419.268 
