ITEM: TIMESTEP
4000000
ITEM: NUMBER OF CELLS
100
ITEM: BOX BOUNDS ss rr pp
0 0.0001
0 1e-05
-0.5 0.5
ITEM: CELLS f_temp1[*] 
367.05 
378.152 
372.916 
394.943 
380.13 
387.105 
368.924 
370.043 
379.006 
387.358 
364.132 
368.166 
372.181 
379.361 
377.294 
369.894 
396.197 
388.476 
374.964 
376.461 
382.256 
372.401 
386.055 
384.272 
386.394 
370.485 
369.023 
387.161 
381.679 
375.665 
374.884 
380.09 
378.253 
387.294 
378.687 
396.724 
378.196 
383.224 
379.92 
380.115 
387.875 
383.667 
397.482 
402.161 
382.696 
385.003 
381.556 
381.883 
391.264 
400.71 
394.947 
403.276 
378.284 
387.668 
390.623 
397.197 
372.423 
375.954 
397.448 
399.611 
380.3 
397.852 
392.612 
392.698 
387.544 
378.322 
383.526 
388.993 
399.369 
385.053 
390.601 
392.609 
394.904 
401.517 
386.698 
388.065 
393.795 
388.341 
389.229 
385.849 
390.945 
408.975 
396.563 
392.934 
386.154 
406.381 
407.952 
389.847 
387.234 
406.525 
393.158 
405.212 
404.728 
401.665 
403.73 
411.189 
396.545 
402.017 
388.093 
389.754 
