ITEM: TIMESTEP
5600000
ITEM: NUMBER OF CELLS
100
ITEM: BOX BOUNDS ss rr pp
0 0.0001
0 1e-05
-0.5 0.5
ITEM: CELLS f_temp1[*] 
370.528 
377.602 
378.634 
388.598 
385.035 
384.347 
388.031 
381.851 
394.528 
380.378 
384.197 
383.354 
378.958 
396.388 
377.558 
378.724 
363.776 
380.828 
377.792 
389.562 
385.802 
382.63 
406.255 
386.202 
394.204 
394.95 
378.992 
378.688 
379.066 
380.631 
378.894 
395.154 
385.859 
385.888 
376.411 
379.481 
375.488 
391.704 
390.508 
368.087 
387.025 
384.712 
370.684 
385.6 
367.311 
392.809 
389.303 
391.542 
404.887 
382.453 
389.893 
397.336 
379.664 
402.358 
388.345 
387.045 
385.515 
388.408 
397.095 
401.158 
399.149 
395.502 
382.6 
393.525 
385.323 
389.102 
394.358 
387.675 
381.542 
393.857 
396.89 
400.973 
393.659 
384.324 
389.589 
391.17 
391.625 
408.919 
392.285 
404.114 
398.189 
397.911 
385.488 
408.312 
398.873 
394.995 
394.738 
402.845 
412.901 
398.849 
388.682 
392.833 
401.079 
403.081 
404.141 
410.475 
419.124 
401.923 
407.921 
393.315 
