ITEM: TIMESTEP
51700000
ITEM: NUMBER OF CELLS
100
ITEM: BOX BOUNDS ss rr pp
0 0.0001
0 1e-05
-0.5 0.5
ITEM: CELLS f_temp1[*] 
367.838 
369.525 
381.319 
380.73 
373.169 
366.95 
369.428 
373.348 
377.61 
366.712 
389.394 
382.108 
374.259 
379.618 
383.879 
379.903 
379.099 
382.389 
374.185 
385.831 
373.845 
378.682 
382.842 
385.608 
371.845 
378.882 
379.109 
379.7 
375.314 
384.438 
386.739 
386.067 
383.559 
383.968 
386.349 
390.394 
373.217 
379.976 
387.278 
380.721 
380.993 
377.083 
398.762 
394.572 
387.937 
398.559 
394.145 
383.937 
381.532 
396.546 
385.849 
379.606 
401.466 
388.42 
380.879 
403.897 
386.265 
394.462 
398.585 
400.429 
397.751 
390.721 
385.549 
381.78 
399.432 
380.549 
398.437 
392.66 
392.285 
393.57 
380.804 
403.576 
397.162 
392.469 
387.991 
400.413 
395.192 
384.552 
390.578 
387.422 
377.233 
391.614 
416.519 
383.635 
403.635 
408.585 
391.402 
403.073 
386.334 
395.864 
395.919 
392.111 
389.798 
405.483 
403.183 
403.482 
380.39 
399.423 
403.591 
406.812 
