ITEM: TIMESTEP
6550000
ITEM: NUMBER OF CELLS
100
ITEM: BOX BOUNDS ss rr pp
0 0.0001
0 1e-06
-0.5 0.5
ITEM: CELLS f_temp1[*] 
345.5 
326.234 
345.765 
377.933 
391.939 
351.389 
376.277 
356.054 
374.824 
348.401 
405.041 
335.623 
365.085 
376.791 
359.585 
368.565 
357.213 
370.963 
325.285 
400.412 
341.652 
422.18 
364.53 
369.053 
408.775 
381.498 
369.565 
369.947 
362.025 
422.936 
414.068 
403.298 
380.438 
364.861 
370.875 
370.425 
379.35 
350.54 
364.148 
396.354 
324.651 
400.709 
383.299 
387.796 
397.94 
394.203 
457.496 
392.76 
338.676 
360.653 
404.085 
365.638 
410.555 
404.101 
374.886 
413.313 
382.78 
418.701 
360.519 
377.327 
380.315 
416.789 
438.338 
415.476 
445.6 
394.622 
384.681 
385.343 
450.457 
409.221 
398.275 
432.736 
464.326 
384.515 
423.337 
437.18 
394.093 
382.03 
405.399 
351.353 
395.897 
423.518 
390.134 
402.259 
395.37 
475.892 
435.106 
428.863 
406.781 
419.56 
434.094 
445.287 
366.111 
390.381 
467.272 
412.844 
463.457 
441.279 
441.38 
416.941 
