ITEM: TIMESTEP
8290000
ITEM: NUMBER OF CELLS
100
ITEM: BOX BOUNDS ss rr pp
0 0.0001
0 1e-06
-0.5 0.5
ITEM: CELLS f_temp1[*] 
387.952 
362.846 
337.59 
320.974 
391.275 
339.186 
338.558 
406.689 
380.885 
365.087 
398.162 
329.344 
356.164 
317.772 
382.908 
363.156 
332.344 
394.961 
368.578 
352.133 
385.297 
347.613 
372.214 
350.866 
324.208 
407.69 
371.82 
374.077 
361.132 
384.508 
395.196 
352.159 
384.781 
369.61 
347.724 
373.914 
382.291 
350.531 
361.603 
368.294 
393.601 
365.349 
421.348 
390.72 
378.756 
382.767 
342.372 
336.69 
401.486 
411.79 
385.242 
351.144 
381.54 
374.875 
422.554 
413.825 
379.218 
382.839 
398.585 
440.814 
374.315 
377.871 
360.145 
399.816 
394.077 
423.946 
378.754 
408.502 
403.173 
439.149 
364.947 
424.876 
388.658 
396.549 
382.97 
374.246 
400.281 
419.756 
404.844 
382.139 
404.112 
373.284 
407.624 
367.206 
395.117 
425.293 
403.494 
446.713 
419.062 
435.326 
406.473 
418.596 
428.164 
435.09 
423.72 
410.459 
396.925 
358.118 
425.6 
431.246 
