ITEM: TIMESTEP
3860000
ITEM: NUMBER OF CELLS
100
ITEM: BOX BOUNDS ss rr pp
0 0.0001
0 1e-06
-0.5 0.5
ITEM: CELLS f_temp1[*] 
354.794 
356.54 
358.001 
358.906 
314.274 
367.493 
354.465 
354.63 
353.804 
373.743 
367.86 
365.408 
390.887 
376.42 
382.542 
340.59 
364.486 
376.581 
378.351 
392.626 
374.039 
354.05 
345.166 
348.071 
366.883 
378.798 
356.771 
328.593 
361.974 
387.783 
339.442 
393.207 
385.02 
395.229 
354.269 
372.269 
400.922 
384.554 
385.839 
407.266 
366.543 
393.569 
374.69 
375.87 
426.57 
410.222 
387.312 
398.861 
374.462 
346.457 
396.058 
379.332 
407.211 
421.385 
386.167 
360.434 
393.357 
393.239 
455.505 
414.037 
406.358 
407.376 
433.542 
381.43 
413.465 
399.094 
399.927 
396.9 
394.15 
404.221 
430.212 
387.545 
379.279 
343.592 
426.622 
400.422 
356.187 
423.122 
444.579 
407.159 
476.369 
408.886 
410.329 
373.022 
367.433 
396.964 
374.983 
421.572 
372.536 
434.36 
429.149 
405.761 
420.398 
399.675 
461.591 
403.04 
458.868 
437.82 
388.351 
396.609 
