ITEM: TIMESTEP
1850000
ITEM: NUMBER OF CELLS
100
ITEM: BOX BOUNDS ss rr pp
0 0.0001
0 1e-06
-0.5 0.5
ITEM: CELLS f_temp1[*] 
369.431 
325.937 
344.746 
338.342 
319.71 
355.959 
374.104 
322.736 
349.751 
366.607 
352.649 
361.021 
318.118 
419.565 
340.494 
365.255 
371.545 
392.235 
377.729 
381.188 
340.408 
388.725 
381.551 
367.551 
359.114 
376.592 
384.994 
371.644 
349.838 
348.721 
367.982 
387.802 
397.189 
364.419 
389.343 
405.066 
378.025 
367.741 
389.489 
321.947 
371.285 
445.823 
379.928 
392.857 
399.396 
353.316 
378.152 
421.005 
410.621 
398.755 
419.708 
400.519 
399.412 
435.39 
348.729 
411.61 
387.269 
395.343 
415.112 
400.96 
386.909 
361.177 
397.61 
437.421 
392.237 
434.625 
388.076 
420.579 
371.961 
415.25 
410.4 
386.344 
376.41 
384.851 
354.563 
467.366 
406.262 
382.694 
412.902 
422.186 
408.845 
377.523 
420.622 
442.616 
388.958 
390.536 
478.67 
404.046 
392.273 
362.914 
388.034 
387.158 
399.953 
474.369 
394.674 
390.628 
377.808 
417.131 
409.061 
449.6 
