ITEM: TIMESTEP
37700000
ITEM: NUMBER OF CELLS
100
ITEM: BOX BOUNDS ss rr pp
0 0.0001
0 1e-05
-0.5 0.5
ITEM: CELLS f_temp1[*] 
377.705 
360.462 
384.498 
393.337 
388.889 
368.677 
383.145 
370.691 
377.707 
377.576 
380.147 
382.236 
357.602 
387.12 
382.588 
369.05 
375.328 
372.813 
392.295 
385.859 
382.162 
388.554 
380.718 
398.703 
389.069 
383.47 
379.993 
383.648 
378.724 
382.323 
391.341 
375.793 
372.46 
396.159 
391.756 
385.741 
398.281 
386.16 
399.072 
389.34 
391.189 
394.377 
389.029 
396.775 
381.736 
375.916 
368.08 
386.864 
395.188 
398.065 
395.149 
376.867 
388.329 
387.639 
399.096 
386.922 
397.677 
380.38 
381.991 
395.702 
379.116 
382.003 
397.263 
390.341 
399.994 
382.511 
388.995 
403.981 
403.689 
375.861 
392.853 
395.861 
392.253 
383.527 
403.786 
397.674 
386.818 
400.474 
402.271 
384.086 
397.249 
407.158 
405.122 
397.959 
399.644 
404.61 
407.396 
396.422 
405.243 
394.991 
401.992 
392.262 
379.474 
405.652 
393.127 
400.54 
405.829 
393.994 
397.582 
396.843 
