ITEM: TIMESTEP
93800000
ITEM: NUMBER OF CELLS
100
ITEM: BOX BOUNDS ss rr pp
0 0.0001
0 1e-05
-0.5 0.5
ITEM: CELLS f_temp1[*] 
381.826 
379.59 
376.94 
391.952 
387.954 
381.462 
369.949 
364.367 
373.855 
383.5 
391.817 
386.928 
378.776 
387.442 
377.353 
381.451 
393.746 
370.196 
376.028 
389.378 
384.005 
375.912 
375.324 
380.24 
377.055 
376.794 
383.39 
394.044 
395.561 
378.255 
401.89 
388.326 
395.348 
388.404 
392.668 
392.332 
378.401 
370.366 
381.858 
395.582 
387.472 
376.101 
390.199 
389.227 
383.275 
374.906 
396.248 
386.622 
384.775 
372.192 
383.151 
381.013 
387.531 
384.693 
381.993 
386.698 
399.048 
387.083 
395.193 
389.589 
399.383 
388.222 
416.32 
401.989 
388.381 
391.724 
390.424 
397.809 
403.735 
395.184 
387.166 
381.341 
398.638 
375.32 
393.346 
387.745 
385.19 
388.667 
390.261 
388.023 
406.664 
391.424 
389.616 
387.427 
419.562 
394.547 
390.695 
391.063 
392.397 
400.038 
397.64 
379.774 
402.261 
415.805 
398.823 
386.021 
407.036 
391.782 
403.474 
394.075 
