ITEM: TIMESTEP
7020000
ITEM: NUMBER OF CELLS
100
ITEM: BOX BOUNDS ss rr pp
0 0.0001
0 1e-06
-0.5 0.5
ITEM: CELLS f_temp1[*] 
348.608 
410.662 
359.944 
375.8 
363.186 
385.369 
392.167 
355.18 
393.595 
362.57 
363.14 
369.443 
354.933 
352.165 
424.948 
369.907 
373.569 
410.741 
361.612 
402.714 
361.238 
343.345 
424.08 
405.483 
330.896 
350.307 
322.622 
388.331 
368.392 
360.14 
398.776 
338.437 
326.608 
413.728 
362.684 
404.48 
385.112 
428.063 
364.115 
370.943 
386.593 
374.379 
398.198 
428.999 
399.487 
368.652 
415.226 
381.21 
401.076 
383.971 
395.597 
399.828 
394.487 
356.534 
403.795 
380.038 
378.143 
383.338 
376.001 
411.68 
388.726 
401.175 
352.175 
424.085 
436.809 
402.259 
393.537 
383.248 
409.25 
375.981 
400.315 
334.197 
374.096 
356.415 
401.378 
373.252 
377.562 
399.753 
397.995 
432.636 
388.809 
440.115 
421.67 
430.123 
469.955 
374.167 
403.47 
382.683 
426.446 
420.348 
440.847 
405.05 
447.739 
360.486 
464.343 
404.395 
371.991 
395.492 
426.71 
406.349 
