ITEM: TIMESTEP
7340000
ITEM: NUMBER OF CELLS
100
ITEM: BOX BOUNDS ss rr pp
0 0.0001
0 1e-06
-0.5 0.5
ITEM: CELLS f_temp1[*] 
349.422 
325.473 
353.052 
366.424 
411.155 
379.252 
314.9 
377.66 
393.366 
344.623 
404.218 
395.161 
379.72 
347.631 
391.787 
338.447 
329.43 
364.961 
391.182 
384.619 
389.111 
389.168 
309.453 
357.876 
386.567 
369.438 
343.355 
356.876 
365.538 
363.709 
414.438 
403.327 
393.817 
437.136 
406.707 
403.313 
390.524 
380.885 
387.468 
371.444 
352.001 
369.589 
389.676 
405.235 
367.995 
378.316 
395.457 
402.528 
373.868 
363.105 
395.149 
371.224 
432.044 
420.255 
410.051 
392.219 
348.561 
357.982 
412.455 
398.233 
377.482 
444.611 
438.096 
421.386 
371.579 
413.076 
412.615 
413.141 
362.206 
393.671 
423.884 
395.794 
378.653 
430.54 
393.732 
413.523 
417.227 
392.596 
431.381 
408.657 
406.803 
466.167 
423.584 
386.192 
392.673 
442.971 
384.496 
419.93 
434.02 
416.554 
407.64 
400.618 
419.342 
406.739 
424.6 
359.307 
375.305 
420.208 
388.915 
438.974 
