ITEM: TIMESTEP
600000
ITEM: NUMBER OF CELLS
100
ITEM: BOX BOUNDS ss rr pp
0 0.0001
0 1e-05
-0.5 0.5
ITEM: CELLS f_temp1[*] 
375.693 
389.408 
376.451 
387.067 
388.726 
379.59 
356.608 
380.047 
372.258 
380.609 
393.707 
390.753 
374.922 
372.501 
373.971 
385 
362.399 
393.449 
371.963 
376.149 
385.177 
388.473 
369.802 
382.168 
390.322 
385.754 
382.844 
384.139 
381.581 
383.006 
373.304 
378.791 
383.678 
386.367 
380.393 
368.054 
398.584 
385.474 
396.953 
387.923 
381.834 
391.381 
381.377 
401.592 
389.332 
401.123 
379.02 
378.23 
382.129 
384.847 
385.749 
386.025 
386.181 
379.538 
380.291 
408.513 
403.999 
387.122 
382.751 
391.767 
381.705 
388.088 
394.646 
394.662 
392.377 
380.063 
376.629 
376.697 
395.491 
374.583 
394.09 
383.258 
403.399 
381.295 
393.657 
379.202 
393.788 
393.606 
381.515 
392.258 
390.715 
394.408 
389.159 
410.038 
396.948 
402.149 
403.645 
407.3 
408.957 
388.906 
401.489 
391.738 
402.143 
385.721 
389.247 
393.128 
408.312 
412.908 
404.823 
404.217 
