ITEM: TIMESTEP
4220000
ITEM: NUMBER OF CELLS
100
ITEM: BOX BOUNDS ss rr pp
0 0.0001
0 1e-06
-0.5 0.5
ITEM: CELLS f_temp1[*] 
319.782 
413.117 
350.221 
363.407 
383.919 
342.227 
381.274 
336.496 
363.647 
363.401 
348.139 
397.933 
342.224 
350.237 
377.232 
340.903 
337.756 
378.786 
338.75 
334.371 
342.429 
349.076 
367.973 
406.085 
351.492 
362.746 
384.992 
303.378 
363.908 
380.661 
413.083 
394.263 
401.617 
350.792 
420.243 
431.313 
386.92 
392.268 
393.358 
383.872 
347.026 
378.784 
360.777 
383.945 
404.479 
370.618 
439.559 
447.695 
363.275 
391.456 
385.799 
379.675 
409.557 
392.145 
398.74 
364.928 
427.834 
401.037 
361.063 
413.44 
421.962 
399.156 
391.245 
414.107 
382.705 
396.602 
420.082 
399.356 
412.193 
428.957 
394.037 
421.517 
386.033 
399.186 
402.508 
415.264 
424.546 
429.332 
376.098 
357.84 
433.833 
391.97 
437.202 
397.017 
436.888 
465.206 
435.042 
399.807 
451.973 
406.636 
401.63 
414.809 
387.986 
465.632 
404.201 
438.754 
410.657 
404.259 
439.447 
422.633 
