ITEM: TIMESTEP
1590000
ITEM: NUMBER OF CELLS
100
ITEM: BOX BOUNDS ss rr pp
0 0.0001
0 1e-06
-0.5 0.5
ITEM: CELLS f_temp1[*] 
341.556 
396.265 
371.362 
387.286 
361.96 
341.111 
362.787 
351.344 
361.15 
419.625 
385.442 
361.136 
375.01 
371.002 
392.111 
350.009 
365.862 
394.037 
331.943 
356.834 
378.25 
380.163 
418.323 
387.631 
383.9 
368.198 
368.98 
438.739 
348.901 
350.509 
466.154 
375.957 
357.095 
360.117 
388.014 
380.274 
355.748 
361.607 
404.425 
397.551 
402.937 
387.732 
409.782 
408.83 
396.901 
405.273 
368.95 
356.509 
369.31 
360.016 
424.663 
398.251 
382.696 
381.534 
374.592 
370.678 
422.759 
393.79 
355.623 
363.279 
388.437 
449.4 
407.038 
413.213 
387.071 
398.848 
406.666 
385.883 
356.795 
361.496 
387.315 
362.212 
413.071 
386.174 
372.019 
380.656 
391.997 
403.026 
419.456 
440.112 
400.182 
463.057 
348.265 
449.047 
415.297 
428.245 
396.542 
402.112 
414.348 
393.154 
475.121 
388.161 
422.534 
388.885 
383.094 
434.791 
480.014 
406.417 
412.269 
445.962 
