ITEM: TIMESTEP
2640000
ITEM: NUMBER OF CELLS
100
ITEM: BOX BOUNDS ss rr pp
0 0.0001
0 1e-06
-0.5 0.5
ITEM: CELLS f_temp1[*] 
357.836 
385.243 
338.739 
374.472 
317.927 
357.306 
327.33 
330.162 
368.999 
343.118 
378.039 
321.043 
325.512 
395.641 
370.655 
376.527 
365.63 
389.891 
333.158 
384.391 
327.682 
387.721 
311.927 
343.756 
405.286 
369.458 
386.407 
351.879 
384.254 
372.251 
375.867 
381.228 
396.961 
362.052 
372.807 
372.621 
388.991 
359.815 
400.066 
348.809 
359.387 
376.163 
392.435 
409.45 
384.25 
408.08 
342.484 
413.539 
418.819 
358.598 
381.211 
355.036 
359.694 
407.261 
381.026 
393.094 
356.92 
371.895 
389.332 
413.082 
437.507 
384.203 
371.115 
394.269 
367.413 
389.328 
383.567 
429.672 
435.4 
345.157 
433.16 
407.308 
385.772 
429.678 
419.493 
446.522 
414.387 
426.589 
428.177 
398.673 
376.508 
424.553 
409.671 
471.828 
403.237 
417.23 
473.541 
436.639 
382.543 
406.794 
387.898 
423.617 
449.035 
437.075 
402.924 
455.432 
427.098 
468.544 
417.611 
397.142 
