ITEM: TIMESTEP
470000
ITEM: NUMBER OF CELLS
100
ITEM: BOX BOUNDS ss rr pp
0 0.0001
0 1e-06
-0.5 0.5
ITEM: CELLS f_temp1[*] 
349.611 
325.608 
343.53 
309.273 
318.793 
329.426 
373.22 
325.888 
342.259 
398.573 
364.714 
418.389 
345.029 
357.64 
357.425 
362.741 
320.366 
349.982 
378.447 
393.263 
358.921 
375.687 
399.258 
391.26 
390.357 
395.055 
401.025 
370.527 
331.024 
404.792 
373.745 
371.938 
377.737 
406.058 
359.501 
368.967 
367.47 
397.426 
425.86 
380.048 
386.584 
347.287 
377.293 
430.448 
369.801 
445.718 
376.6 
372.494 
417.952 
381.665 
372.046 
397.25 
399.31 
377.742 
411.973 
406.317 
415.113 
450.325 
366.14 
368.17 
406.281 
393.582 
373.526 
373.987 
399.859 
429.255 
372.511 
449.387 
389.864 
440.154 
378.085 
423.252 
398.32 
383.418 
410.341 
379.713 
440.347 
357.986 
405.161 
420.054 
475.223 
427.596 
392.4 
390.911 
437.145 
439.091 
417.946 
403.208 
425.276 
438.953 
423.379 
437.04 
362.308 
377.638 
376.879 
405.283 
486.213 
452.313 
421.033 
422.404 
