ITEM: TIMESTEP
9820000
ITEM: NUMBER OF CELLS
100
ITEM: BOX BOUNDS ss rr pp
0 0.0001
0 1e-06
-0.5 0.5
ITEM: CELLS f_temp1[*] 
356.717 
336.909 
378.736 
362.397 
393.146 
337 
331.618 
334.524 
375.237 
323.728 
381.578 
329.759 
339.79 
364.07 
364.888 
351.893 
378.849 
345.886 
393.182 
389.051 
337.153 
332.864 
422.467 
361.824 
401.053 
386.04 
350.722 
356.249 
393.462 
334.505 
409.45 
376.509 
378.037 
441.161 
343.315 
409.349 
417.465 
389.305 
360.343 
427.082 
387.37 
395.787 
374.221 
395.456 
377.611 
404.864 
404.461 
352.094 
374.515 
398.822 
364.723 
392.621 
390.033 
399.036 
395.991 
384.198 
374.276 
375.206 
401.502 
382.845 
385.263 
392.557 
394.117 
362.349 
396.707 
379.902 
389.483 
362.249 
418.401 
437.712 
377.318 
386.637 
402.589 
384.636 
426.613 
453.709 
427.676 
376.136 
385.259 
397.174 
467.023 
465.973 
402.449 
444.681 
376.489 
485.884 
368.932 
436.599 
407.941 
421.72 
408.965 
400.856 
400.471 
480.217 
443.277 
421.926 
427.467 
430.682 
452.526 
394.077 
