ITEM: TIMESTEP
9370000
ITEM: NUMBER OF CELLS
100
ITEM: BOX BOUNDS ss rr pp
0 0.0001
0 1e-06
-0.5 0.5
ITEM: CELLS f_temp1[*] 
355.372 
344.083 
339.166 
350.031 
334.278 
369.072 
363.99 
368.226 
370.187 
359.382 
357.636 
340.319 
367.438 
404.171 
332.981 
376.825 
364.881 
410.455 
368.67 
370.782 
352.619 
371.701 
395.564 
367.504 
364.056 
403.262 
377.344 
406.741 
402.487 
400.441 
351.885 
381.959 
402.135 
434.554 
409.733 
422.918 
368.607 
400.768 
353.395 
374.673 
421.266 
370.281 
378.594 
423.707 
400.798 
356.352 
405.607 
421.304 
415.816 
376.605 
398.461 
399.538 
456.769 
392.239 
433.783 
447.019 
343.744 
365.915 
390.706 
405.953 
412.749 
389.674 
400.396 
462.638 
392.442 
350.894 
431.977 
451.406 
469.186 
394.125 
413.649 
408.735 
390.227 
485.33 
403.308 
402.533 
367.473 
370.399 
396.846 
402.441 
418.762 
394.922 
401.092 
415.29 
437.82 
428.808 
395.868 
420.342 
376.355 
447.761 
446.96 
403.667 
411.788 
393.562 
500.361 
422.724 
449.641 
397.684 
443.815 
458.037 
