ITEM: TIMESTEP
34600000
ITEM: NUMBER OF CELLS
100
ITEM: BOX BOUNDS ss rr pp
0 0.0001
0 1e-05
-0.5 0.5
ITEM: CELLS f_temp1[*] 
359.646 
358.33 
374.893 
389.721 
379.454 
393.169 
372.906 
363.096 
394.1 
376.587 
371.85 
377.954 
389.858 
391.415 
394.983 
372.71 
382.12 
371.083 
379.304 
369.291 
372.755 
372.493 
377.178 
368.465 
384.186 
403.273 
381.303 
381.97 
377.605 
376.504 
393.126 
386.747 
379.573 
396.289 
394.245 
380.801 
396.087 
384.048 
387.933 
388.372 
388.923 
385.197 
393.264 
395.273 
397.672 
381.24 
386.474 
385.653 
390.066 
387.422 
388.429 
375.415 
397.751 
397.48 
385.963 
399.391 
388.404 
396.078 
378.951 
375.697 
397.906 
401.242 
380.04 
396.322 
402.825 
388.12 
375.048 
383.739 
381.204 
404.839 
381.124 
392.207 
389.31 
395.655 
407.195 
394.205 
388.756 
388.563 
394.658 
394.911 
396.084 
397.108 
406.788 
391.426 
390.756 
396.652 
385.966 
405.947 
406.937 
402.94 
404.177 
397.459 
404.751 
393.863 
399.343 
412.139 
389.771 
394.339 
399.275 
401.295 
