ITEM: TIMESTEP
62200000
ITEM: NUMBER OF CELLS
100
ITEM: BOX BOUNDS ss rr pp
0 0.0001
0 1e-05
-0.5 0.5
ITEM: CELLS f_temp1[*] 
370.317 
365.742 
372.999 
385.551 
380.406 
378.132 
377.272 
376.146 
366.586 
379.717 
378.815 
387.264 
374.439 
376.903 
389.207 
392.184 
374.506 
385.905 
385.091 
385.122 
386.418 
393.584 
385.416 
381.283 
387.67 
387.584 
372.273 
379.943 
394.523 
387.647 
391.066 
385.445 
381.456 
370.614 
376.667 
399.881 
377.471 
389.552 
399.069 
388.951 
370.508 
393.629 
398.399 
388.723 
405.022 
367.443 
393.979 
391.959 
385.973 
399.862 
386.099 
392.25 
404.271 
379.328 
402.449 
394.809 
402.098 
401.371 
382.954 
385.032 
400.264 
386.676 
390.036 
394.759 
380.401 
388.137 
379.242 
388.387 
410.323 
380.951 
389.108 
387.17 
381.677 
377.147 
396.85 
388.3 
400.886 
396.85 
394.978 
395.206 
394.246 
405.75 
387.095 
408.781 
393.105 
396.886 
389.738 
390.43 
380.8 
391.798 
390.152 
403.303 
404.625 
395.472 
388.685 
413.542 
394.672 
393.622 
392.863 
395.912 
