ITEM: TIMESTEP
81200000
ITEM: NUMBER OF CELLS
100
ITEM: BOX BOUNDS ss rr pp
0 0.0001
0 1e-05
-0.5 0.5
ITEM: CELLS f_temp1[*] 
368.387 
379.326 
382.902 
371.16 
378.624 
372.768 
376.792 
380.71 
370.608 
390.919 
370.564 
391.182 
377.055 
373.002 
397.714 
387.791 
378.779 
387.214 
386.372 
383.018 
375.914 
386.268 
361.217 
384.558 
390.712 
393.79 
382.206 
380.952 
381.049 
372.13 
385.498 
380.019 
391.287 
372.527 
389.088 
370.63 
393.628 
384.326 
388.245 
378.356 
375.1 
397.582 
388.143 
365.51 
387.195 
386.142 
390.724 
386.613 
406.785 
374.444 
381.3 
389.413 
381.281 
372.864 
387.448 
397.743 
387.632 
398.044 
393.758 
383.528 
392.628 
387.547 
399.894 
392.727 
385.275 
393.163 
379.041 
399.919 
396.879 
391.548 
399.242 
393.831 
401.124 
404.223 
394.503 
410.668 
392.66 
380.681 
393.626 
405.943 
385.903 
396.277 
383.539 
410.599 
396.865 
402.925 
397.883 
403.76 
416.293 
408.269 
398.857 
400.261 
390.734 
385.269 
389.308 
404.537 
396.122 
389.461 
398.521 
394.785 
