ITEM: TIMESTEP
1950000
ITEM: NUMBER OF CELLS
100
ITEM: BOX BOUNDS ss rr pp
0 0.0001
0 1e-06
-0.5 0.5
ITEM: CELLS f_temp1[*] 
346.975 
392.243 
367.474 
373.559 
366.057 
313.435 
340.626 
352.555 
371.755 
360.102 
334.984 
344.01 
352.852 
369.432 
371.56 
361.469 
349.984 
372.777 
363.519 
428.26 
374.806 
368.404 
360.019 
325.168 
366.216 
365.331 
364.625 
371.312 
328.787 
395.65 
355.676 
392.997 
384.121 
372.522 
372.113 
404.459 
351.779 
368.212 
433.224 
376.194 
386.245 
404.645 
351.134 
402.593 
404.24 
380.186 
434.555 
374.922 
382.551 
404.134 
393.899 
398.976 
392.976 
349.609 
405.377 
381.276 
381.286 
419.394 
354.921 
371.765 
438.91 
364.794 
436.528 
402.795 
438.594 
375.228 
350.582 
442.866 
449.406 
372.314 
373.125 
408.183 
400.398 
417.636 
351.906 
391.789 
386.648 
409.062 
353.893 
373.184 
451.912 
409.192 
373.075 
420.538 
429.286 
402.2 
413.043 
357.282 
404.27 
416.658 
460.953 
397.001 
431.03 
398.306 
391.559 
427.798 
412.562 
425.249 
390.363 
429.402 
