ITEM: TIMESTEP
3380000
ITEM: NUMBER OF CELLS
100
ITEM: BOX BOUNDS ss rr pp
0 0.0001
0 1e-06
-0.5 0.5
ITEM: CELLS f_temp1[*] 
351.54 
368.974 
386.63 
369.51 
391.742 
359.024 
334.201 
343.53 
349.055 
383.243 
394.567 
371.4 
367.581 
402.101 
371.979 
354.875 
387.046 
393.662 
351.817 
352.808 
375.751 
394.559 
410.653 
374.74 
338.817 
390.799 
384.167 
400.348 
373.022 
382.789 
381.712 
390.787 
356.044 
412.355 
373.84 
377.853 
343.337 
373.68 
382.907 
382.098 
358.712 
392.066 
421.697 
407.716 
407.966 
414.335 
390.064 
377.598 
427.726 
410.327 
387.734 
424.673 
459.784 
422.678 
362.185 
389.336 
388.858 
370.131 
367.451 
369.718 
392.282 
424.232 
418.229 
404.41 
414.93 
382.154 
394.037 
437.66 
457.349 
420.925 
393.605 
399.499 
451.062 
414.367 
439.191 
403.893 
389.679 
418.045 
462.947 
380.446 
461.424 
433.47 
444.169 
438.786 
423.035 
408.027 
446.493 
413.351 
447.988 
400.698 
471.869 
385.155 
451.866 
466.984 
403.077 
441.538 
457.49 
387.843 
419.55 
488.545 
