ITEM: TIMESTEP
49000000
ITEM: NUMBER OF CELLS
100
ITEM: BOX BOUNDS ss rr pp
0 0.0001
0 1e-05
-0.5 0.5
ITEM: CELLS f_temp1[*] 
384.986 
372.936 
369.425 
387.155 
363.001 
382.932 
381.361 
386.928 
373.603 
374.203 
372.824 
378.839 
384.102 
390.048 
363.931 
392.035 
378.841 
367.257 
372.98 
394.072 
379.241 
382.027 
378.344 
386.932 
388.848 
380.034 
385.873 
374.321 
388.601 
376.014 
385.06 
378.618 
368.859 
385.22 
391.314 
377.332 
382.974 
392.53 
379.822 
384.763 
391.433 
380.609 
380.235 
386.842 
394.412 
381.819 
387.088 
389.174 
388.999 
387.272 
401.69 
400.189 
392.141 
388.606 
395.156 
381.408 
396.055 
399.655 
394.98 
389.983 
394.91 
391.571 
392.225 
379.031 
399.308 
383.101 
391.224 
387.555 
385.333 
396.687 
402.735 
376.575 
396.187 
393.953 
401.78 
389.236 
410.519 
385.4 
400.248 
394.067 
381.665 
381.359 
408.134 
391.277 
390.296 
414.935 
399.275 
411.78 
394.632 
395.532 
388.812 
382.989 
397.965 
396.57 
390.77 
396.335 
384.418 
390.44 
387.739 
406.192 
