ITEM: TIMESTEP
35800000
ITEM: NUMBER OF CELLS
100
ITEM: BOX BOUNDS ss rr pp
0 0.0001
0 1e-05
-0.5 0.5
ITEM: CELLS f_temp1[*] 
357.793 
383.56 
381.854 
377.837 
380.725 
384.399 
372.939 
370.965 
383.916 
390.867 
358.517 
369.804 
376.051 
387.898 
373.39 
370.001 
380.358 
400.546 
370.732 
378.875 
364.147 
385.218 
365.907 
382.015 
377.028 
383.872 
382.699 
373.079 
395.546 
381.599 
398.243 
382.695 
395.223 
386.322 
374.384 
390.468 
403.092 
381.335 
381.431 
377.002 
391.731 
392.723 
393.16 
385.616 
374.626 
375.753 
380.729 
376.587 
375.926 
398.342 
382.97 
386.044 
376.419 
387.894 
392.823 
386.715 
396.611 
377.651 
391.849 
387.968 
368.396 
391.168 
401.446 
393.023 
390.364 
367.826 
398.525 
392.736 
389.764 
384.916 
390.359 
373.837 
390.238 
375.325 
415.44 
393.441 
384.033 
381.46 
389.518 
387.992 
408.022 
390.817 
400.133 
392.857 
404.64 
398.655 
399.205 
381.087 
399.71 
386.604 
389.827 
396.198 
398.232 
395.086 
388.334 
387.022 
393.462 
405.338 
381.477 
395.678 
