ITEM: TIMESTEP
6840000
ITEM: NUMBER OF CELLS
100
ITEM: BOX BOUNDS ss rr pp
0 0.0001
0 1e-06
-0.5 0.5
ITEM: CELLS f_temp1[*] 
354.228 
355.912 
357.91 
340.226 
391.36 
348.705 
368.619 
321.068 
397.467 
393.211 
352.128 
362.061 
354.666 
359.456 
355.535 
415.776 
362.31 
384.66 
393.835 
359.504 
383.872 
417.92 
349.851 
394.195 
364.288 
344.303 
344.489 
411.09 
379.001 
386.263 
364.871 
372.223 
431.176 
356.656 
370.254 
374.569 
379.438 
344.165 
360.165 
397.432 
416.04 
351.231 
377.15 
411.774 
378.756 
412.724 
390.132 
384.975 
388.896 
419.374 
386.589 
388.524 
389.109 
392.176 
403.606 
382.957 
397.654 
408.637 
362.836 
387.201 
378.855 
428.065 
412.696 
376.578 
343.86 
381.303 
393.963 
420.785 
410.572 
385.656 
403.465 
456.256 
404.125 
415.73 
379.011 
427.569 
403.23 
428.816 
418.991 
416.181 
407.649 
430.431 
391.919 
409.962 
389.14 
401.145 
455.501 
388.034 
462.526 
421.605 
441.381 
435.493 
412.53 
446.149 
449.317 
445.25 
410.702 
386.053 
434.498 
431.313 
