ITEM: TIMESTEP
69000000
ITEM: NUMBER OF CELLS
100
ITEM: BOX BOUNDS ss rr pp
0 0.0001
0 1e-05
-0.5 0.5
ITEM: CELLS f_temp1[*] 
362.201 
381.721 
385.414 
366.147 
378.962 
376.042 
376.766 
382.589 
363.815 
359.704 
396.203 
375.566 
376.877 
385.993 
376.691 
390.863 
379.053 
366.739 
369.18 
370.432 
369.214 
382.988 
377.395 
382.12 
389.289 
382.965 
393.028 
392.579 
384.691 
386.553 
392.901 
389.071 
392.568 
396.124 
375.236 
382.286 
395.548 
378.475 
381.045 
375.453 
389.343 
375.1 
393.403 
382.639 
368.6 
384.559 
400.862 
388.738 
399.109 
384.412 
400.362 
388.051 
393.149 
390.481 
393.813 
385.118 
378.55 
385.347 
388.607 
392.757 
385.419 
378.952 
398.667 
381.696 
390.833 
388.884 
383.379 
400.057 
408.938 
378.845 
375.257 
390.322 
393.149 
383.073 
389.143 
392.443 
387.382 
383.868 
390.595 
393.548 
386.285 
396.28 
404.2 
395.59 
406.226 
385.308 
399.596 
404.317 
405.161 
376.396 
403.233 
403.623 
411.057 
403.496 
396.709 
399.044 
387.535 
407.847 
382.351 
393.042 
