ITEM: TIMESTEP
9240000
ITEM: NUMBER OF CELLS
100
ITEM: BOX BOUNDS ss rr pp
0 0.0001
0 1e-06
-0.5 0.5
ITEM: CELLS f_temp1[*] 
367.118 
329.553 
361.101 
366.947 
400.167 
310.238 
365.933 
368.109 
361.06 
410.426 
364.877 
366.455 
390.368 
377.424 
364.995 
359.067 
397.264 
351.906 
383.643 
372.997 
385.623 
395.175 
385.191 
411.032 
385.181 
338.529 
372.974 
381.767 
419.708 
325.297 
393.578 
389.635 
372.535 
375.897 
367.519 
372.375 
384.71 
383.704 
352.939 
396.93 
412.781 
322.395 
380.705 
371.299 
431.665 
361.78 
353.906 
409.613 
367.366 
378.144 
355.769 
396.672 
414.97 
399.376 
390.123 
416.577 
391.255 
438.798 
380.483 
437.436 
410.452 
404.461 
345.348 
387.486 
412.818 
351.848 
391.925 
417.771 
357.987 
418.36 
406.958 
467.521 
414.783 
377.855 
414.598 
392.224 
451.014 
401.888 
415.578 
428.216 
443.927 
405.915 
472.912 
453.923 
387.303 
453.752 
453.746 
404.329 
358.273 
379.457 
386.103 
448.923 
429.592 
389.432 
403.097 
422.156 
418.415 
403.48 
430.156 
385.7 
