ITEM: TIMESTEP
61600000
ITEM: NUMBER OF CELLS
100
ITEM: BOX BOUNDS ss rr pp
0 0.0001
0 1e-05
-0.5 0.5
ITEM: CELLS f_temp1[*] 
381.448 
369.615 
372.352 
384.201 
377.153 
392.814 
377.008 
377.947 
382.201 
394.692 
380.104 
374.288 
379.369 
383.505 
386.412 
386.577 
368.236 
378.771 
393.543 
377.308 
397.514 
391.001 
385.612 
372.344 
391.249 
376.794 
376.236 
388.706 
382.116 
387.769 
400.113 
381.41 
379.919 
370.658 
382.66 
380.102 
369.219 
376.326 
395.945 
376.553 
380.162 
387.388 
392.363 
377.002 
391.001 
380.777 
385.939 
395.462 
389.814 
403.499 
388.291 
390.791 
393.924 
379.606 
389.408 
392.167 
381.248 
379.331 
376.391 
399.405 
385.392 
392.099 
397.139 
384.431 
397.518 
385.325 
377.304 
403.001 
388.273 
394.764 
400.664 
394.385 
372.458 
389.641 
390.723 
399.459 
384.599 
393.042 
379.809 
392.546 
405.52 
403.323 
403.903 
398.37 
398.992 
381.494 
385.39 
383.479 
382.929 
394.266 
402.459 
393.367 
408.075 
404.462 
399.095 
404.906 
391.864 
396.336 
382.929 
412.576 
