ITEM: TIMESTEP
94200000
ITEM: NUMBER OF CELLS
100
ITEM: BOX BOUNDS ss rr pp
0 0.0001
0 1e-05
-0.5 0.5
ITEM: CELLS f_temp1[*] 
387.149 
382.018 
388.046 
381.476 
378.461 
379.667 
389.014 
374.848 
382.763 
376.015 
369.648 
396.998 
388.307 
380.579 
380.105 
374.863 
401.843 
385.839 
382.933 
388.602 
376.884 
389.174 
379.659 
386.916 
376.776 
385.399 
374.911 
385.479 
390.707 
390.026 
380.902 
400.532 
373.567 
388.075 
381.235 
380.287 
395.149 
375.941 
374.571 
368.571 
372.651 
373.866 
377.107 
392.254 
388.751 
391.821 
383.12 
385.04 
390.316 
386.941 
398.001 
382.427 
390.252 
392.051 
389.672 
385.955 
400.015 
393.541 
402.998 
403.687 
395.385 
392.109 
390.225 
383.455 
387.382 
381.801 
392.947 
390.59 
391.32 
392.553 
394.628 
393.927 
386.552 
386.037 
380.236 
394.275 
395.335 
384.988 
402.019 
407.59 
398.16 
392.189 
398.238 
400.342 
392.795 
396.182 
400.764 
395 
399.177 
409.059 
397.762 
389.245 
392.159 
391.805 
404.595 
395.076 
411.455 
384.798 
392.901 
397.218 
