ITEM: TIMESTEP
5290000
ITEM: NUMBER OF CELLS
100
ITEM: BOX BOUNDS ss rr pp
0 0.0001
0 1e-06
-0.5 0.5
ITEM: CELLS f_temp1[*] 
343.615 
313.044 
362.357 
337.969 
352.141 
389.687 
349.397 
338.238 
362.636 
417.283 
363.971 
389.16 
386.473 
338.439 
360.67 
352.201 
340.816 
361.733 
376.312 
389.057 
348.167 
397.001 
331.888 
372.524 
350.697 
335.575 
366.673 
355.808 
374.375 
378.164 
348.725 
373.226 
375.401 
339.777 
352.101 
418.876 
433.581 
409.605 
425.275 
432.588 
406.488 
404.176 
372.623 
390.255 
410.414 
347.941 
417.843 
414.743 
371.875 
402.34 
356.593 
429.784 
378.368 
400.578 
389.591 
400.66 
421.685 
394.451 
407.986 
418.513 
389.077 
399.948 
385.404 
411.188 
452.706 
434.607 
364.682 
404.297 
476.043 
412.74 
374.849 
402.349 
397.904 
339.253 
398.552 
394.724 
435.605 
391.364 
356.934 
377.929 
413.651 
409.578 
396.676 
420.738 
382.715 
417.295 
446.739 
402.276 
423.008 
444.021 
405.19 
468.435 
391.907 
403.015 
417.049 
374.752 
396.319 
424.212 
413.948 
403.742 
