ITEM: TIMESTEP
520000
ITEM: NUMBER OF CELLS
100
ITEM: BOX BOUNDS ss rr pp
0 0.0001
0 1e-06
-0.5 0.5
ITEM: CELLS f_temp1[*] 
412.903 
401.318 
369.792 
362.998 
377.068 
318.898 
373.042 
383.52 
336.196 
360.906 
388.159 
356.361 
302.748 
393.903 
415.965 
383.864 
370.608 
381.751 
319.361 
388.054 
313.269 
321.298 
385.828 
363.062 
368.583 
435.133 
368.6 
397.919 
382.604 
385.158 
429.844 
370.591 
416.166 
449.518 
366.879 
412.692 
382.2 
381.606 
354.072 
374.833 
383.692 
344.016 
398.018 
398.859 
363.655 
407.299 
363.386 
390.077 
374.164 
450.405 
409.621 
401.715 
380.634 
412.484 
364.163 
483.349 
342.954 
369.734 
428.404 
452.574 
360.05 
433.633 
383.555 
375.373 
371.07 
408.153 
384.614 
379.159 
434.281 
406.507 
398.171 
384.733 
411.402 
402.082 
435.293 
422.815 
385.731 
403.904 
444.353 
429.782 
404.192 
440.532 
352.829 
403.528 
423.237 
425.685 
376.669 
454.914 
358.432 
429.836 
420.189 
437.829 
398.011 
397.441 
424.286 
461.79 
432.173 
409.364 
403.241 
437.237 
