ITEM: TIMESTEP
74700000
ITEM: NUMBER OF CELLS
100
ITEM: BOX BOUNDS ss rr pp
0 0.0001
0 1e-05
-0.5 0.5
ITEM: CELLS f_temp1[*] 
376.661 
372.134 
376.708 
376.029 
376.805 
404.337 
362.033 
377.276 
367.729 
380.738 
381.882 
373.82 
381.697 
371.438 
372.569 
378.084 
384.561 
397.643 
388.372 
382.429 
389.737 
377.804 
389.371 
399.318 
370.533 
383.895 
384.795 
385.417 
395.074 
392.689 
398.423 
384.285 
364.986 
391.086 
369.039 
384.801 
381.21 
404.966 
382.487 
389.149 
378.084 
371.588 
392.593 
369.192 
392.177 
381.699 
388.039 
390.554 
379.553 
388.704 
381.815 
386.881 
395.455 
406.852 
393.163 
398.779 
382.62 
392.588 
401.383 
358.562 
380.561 
401.311 
375.523 
397.888 
392.964 
389.542 
382.884 
399.663 
401.594 
383.381 
384.656 
376.609 
404.274 
385.588 
396.792 
387.467 
396.867 
377.292 
410.142 
391.221 
385.061 
387.615 
397.461 
398.148 
387.331 
396.54 
386.094 
394.116 
407.622 
397.604 
393.615 
382.742 
396.196 
409.96 
394.641 
399.272 
395.08 
404.239 
397.016 
386.222 
