ITEM: TIMESTEP
63700000
ITEM: NUMBER OF CELLS
100
ITEM: BOX BOUNDS ss rr pp
0 0.0001
0 1e-05
-0.5 0.5
ITEM: CELLS f_temp1[*] 
374.466 
384.116 
389.255 
375.866 
382.216 
377.292 
369.672 
374.874 
371.646 
366.709 
379.556 
392.19 
381.962 
366.779 
370.23 
386.971 
383.808 
389.802 
379.511 
383.421 
393.494 
374.989 
383.416 
370.209 
377.683 
380.147 
394.397 
375.795 
382.874 
391.66 
390.533 
373.929 
385 
385.886 
372.466 
378.317 
397.355 
383.533 
383.175 
379.825 
384.664 
382.224 
382.884 
393.947 
379.815 
383.375 
389.511 
378.219 
385.255 
388.782 
411.382 
394.265 
395.682 
388.872 
387.138 
384.174 
396.857 
381.948 
394.523 
391.389 
395.735 
387.623 
393.434 
393.887 
391.835 
387.801 
393.914 
387.465 
397.152 
389.231 
408.569 
401.638 
389.28 
388.202 
402.774 
404.692 
407.942 
402.453 
384.481 
403.191 
395.872 
394.645 
393.983 
393.405 
390.51 
408.975 
385.067 
403.159 
386.869 
375.814 
398.118 
409.724 
390.017 
397.05 
409.128 
413.249 
401.343 
412.635 
404.015 
402.161 
