ITEM: TIMESTEP
46400000
ITEM: NUMBER OF CELLS
100
ITEM: BOX BOUNDS ss rr pp
0 0.0001
0 1e-05
-0.5 0.5
ITEM: CELLS f_temp1[*] 
370.861 
384.713 
374.306 
374.614 
362.549 
376.647 
385.812 
390.238 
382.119 
380.382 
367.486 
378.108 
386.66 
387.879 
375.592 
382.992 
391.2 
387.767 
374.236 
377.902 
390.661 
381.964 
371.061 
380.526 
380.717 
388.382 
387.274 
374.482 
380.97 
378.282 
378.233 
385.89 
399.3 
379.421 
382.782 
386.376 
380.604 
370.892 
391.868 
377.262 
390.262 
390.655 
393.284 
394.996 
384.331 
375.01 
385.722 
389.509 
399.226 
374.899 
386.518 
392.934 
391.758 
384.079 
392.193 
377.068 
394.95 
395.633 
391.838 
394.165 
391.046 
383.211 
394.692 
388.814 
398.154 
401.644 
393.249 
388.256 
402.619 
380.79 
387.286 
394.856 
398.376 
400.974 
385.503 
395.347 
384.735 
389.681 
393.11 
385.464 
390.698 
393.521 
399.931 
395.212 
399.138 
395.718 
407.546 
406.867 
394.206 
395.175 
392.265 
395.519 
398.973 
395.762 
395.328 
412.398 
398.341 
408.006 
388.274 
402.445 
