ITEM: TIMESTEP
9610000
ITEM: NUMBER OF CELLS
100
ITEM: BOX BOUNDS ss rr pp
0 0.0001
0 1e-06
-0.5 0.5
ITEM: CELLS f_temp1[*] 
379.091 
362.489 
356.544 
335.631 
366.904 
389.409 
369.341 
326.991 
363.262 
363.185 
366.389 
356.779 
379 
379.951 
412.642 
389.396 
356.051 
374.373 
425.393 
373.154 
382.663 
335.517 
372.273 
369.301 
376.622 
392.251 
366.308 
436.237 
388.618 
342.728 
386.646 
383.378 
382.252 
395.043 
384.599 
338.941 
379.44 
393.025 
407.096 
371.771 
375.673 
421.914 
408.334 
395.161 
353.971 
333.43 
388.641 
439.415 
401.629 
340.036 
421.89 
355.42 
437.577 
380.289 
381.87 
367.77 
376.668 
379.137 
367.678 
377.599 
371.825 
372.307 
420.521 
421.39 
411.291 
442.874 
422.396 
398.796 
437.155 
390.271 
402.233 
428.694 
416.86 
361.356 
393.081 
380.58 
416.889 
438.664 
400.43 
408.213 
402.315 
433.791 
394.108 
472.344 
406.848 
376.189 
414.519 
412.774 
436.814 
405.732 
388.543 
438.891 
477.295 
469.653 
391.641 
469.289 
414.081 
393.55 
388.449 
494.623 
