ITEM: TIMESTEP
52900000
ITEM: NUMBER OF CELLS
100
ITEM: BOX BOUNDS ss rr pp
0 0.0001
0 1e-05
-0.5 0.5
ITEM: CELLS f_temp1[*] 
378.484 
372.276 
378.714 
386.792 
374.588 
383.807 
375.3 
371.456 
375.075 
385.021 
372.615 
383.978 
385.983 
384.529 
386.983 
375.84 
389.508 
379.723 
383.474 
392.884 
388.01 
372.383 
386.11 
397.379 
385.508 
377.979 
386.896 
383.948 
383.458 
374.723 
390.724 
396.456 
377.241 
375.245 
372.691 
374.046 
375.87 
389.478 
382.462 
372.988 
399.759 
384.598 
392.218 
390.963 
392.815 
395.915 
395.946 
385.907 
395.726 
390.829 
398.518 
379.443 
411.879 
382.108 
383.72 
382.049 
376.265 
404.761 
398.623 
394.688 
385.531 
380.457 
404.072 
393.271 
381.384 
381.681 
387.549 
394.098 
401.892 
388.395 
399.269 
392.296 
390.498 
394.545 
390.955 
390.012 
394.679 
393.835 
389.645 
398.389 
382.082 
394.258 
390.772 
389.167 
401.851 
389.644 
390.334 
398.463 
395.143 
406.675 
396.056 
403.388 
407.791 
412.856 
386.653 
384.078 
390.598 
402.975 
386.901 
392.934 
