ITEM: TIMESTEP
7920000
ITEM: NUMBER OF CELLS
100
ITEM: BOX BOUNDS ss rr pp
0 0.0001
0 1e-06
-0.5 0.5
ITEM: CELLS f_temp1[*] 
308.425 
367.731 
364.909 
380.317 
342.35 
443.654 
352.427 
346.12 
373.426 
391.077 
390.225 
347.127 
372.891 
381.513 
334.914 
353.849 
384.806 
393.195 
366.538 
350.282 
349.719 
361.012 
404.676 
411.607 
366.333 
396.114 
356.113 
361.63 
351.22 
381.57 
381.024 
372.846 
404.37 
370.309 
362.982 
382.951 
386.939 
358.895 
375.026 
372.367 
368.625 
405.645 
376.811 
375.062 
375.393 
391.405 
456.242 
374.938 
340.404 
390.376 
409.938 
412.793 
411.413 
454.69 
382.189 
388.985 
357.102 
420.944 
370.315 
404.616 
388.799 
391.823 
362.888 
392.98 
384.863 
393.472 
443.348 
372.908 
386.535 
412.21 
439.713 
377.861 
372.39 
422.482 
406.852 
432.034 
357.86 
412.723 
410.701 
433.477 
388.156 
386.001 
398.953 
418.595 
410.146 
368.776 
435.106 
443.043 
397.41 
409.354 
402.026 
385.882 
447.733 
444.954 
454.773 
454.105 
424.483 
416.903 
385.708 
450.402 
