ITEM: TIMESTEP
5930000
ITEM: NUMBER OF CELLS
100
ITEM: BOX BOUNDS ss rr pp
0 0.0001
0 1e-06
-0.5 0.5
ITEM: CELLS f_temp1[*] 
343.777 
398.631 
364.324 
372.664 
347.681 
369.325 
378.879 
377.269 
367.482 
352.992 
382.19 
359.671 
371.701 
407.784 
343.455 
376.098 
349.152 
377.876 
350.262 
397.452 
356.634 
368.967 
355.297 
430.035 
387.866 
366.83 
399.255 
362.603 
400.894 
375.76 
346.569 
318.706 
406.063 
388.442 
394.69 
411.12 
359.906 
405.332 
366.94 
375.646 
389.605 
364.718 
410.083 
346.908 
372.979 
399.898 
400.109 
402.316 
396.397 
371.046 
424.178 
376.987 
347.152 
381.403 
393.685 
369.21 
439.296 
448.008 
382.172 
391.516 
397.788 
352.629 
417.894 
396.447 
416.249 
445.513 
421.955 
450.535 
436.587 
368.147 
377.727 
405.629 
380.602 
441.601 
417.365 
419.529 
413.829 
433.968 
407.456 
412.573 
425.946 
405.369 
402.795 
410.355 
462.01 
429.616 
430.304 
411.736 
362.599 
405.419 
396.113 
395.751 
403.268 
387.822 
383.426 
449.815 
394.491 
401.829 
426.495 
471.077 
