ITEM: TIMESTEP
93000000
ITEM: NUMBER OF CELLS
100
ITEM: BOX BOUNDS ss rr pp
0 0.0001
0 1e-05
-0.5 0.5
ITEM: CELLS f_temp1[*] 
370.173 
389.659 
377.671 
387.769 
385.847 
383.379 
356.437 
368.278 
395.312 
379.113 
395.547 
372.136 
381.595 
393.452 
367.251 
361.567 
384.166 
386.621 
385.133 
381.271 
383.078 
381.928 
377.418 
398.278 
386.669 
378.038 
371.099 
380.134 
379.756 
383.903 
390.273 
390.898 
383.567 
380.426 
378.014 
380.491 
407.773 
389.935 
382.288 
379.807 
392.203 
390.037 
389.55 
390.101 
386.725 
392.754 
380.743 
387.98 
389.413 
373.584 
384.542 
388.998 
390.905 
404.66 
381.02 
388.691 
392.69 
384.491 
393.684 
393.255 
392.066 
393.955 
402.077 
378.524 
368.533 
385.044 
377.995 
399.539 
385.601 
391.262 
391.444 
392.862 
382.092 
397.767 
415.707 
411.019 
402.417 
407.738 
389.664 
384.511 
397.76 
384.009 
392.292 
401.153 
388.926 
386.609 
386.129 
386.726 
395.3 
393.924 
401.2 
395.928 
390.305 
387.066 
421.045 
395.524 
397.75 
393.976 
409.309 
388.958 
