ITEM: TIMESTEP
14100000
ITEM: NUMBER OF CELLS
100
ITEM: BOX BOUNDS ss rr pp
0 0.0001
0 1e-05
-0.5 0.5
ITEM: CELLS f_temp1[*] 
371.294 
378.207 
368.762 
371.834 
375.297 
381.084 
379.06 
378.266 
357.305 
374.222 
376.411 
379.939 
384.329 
391.384 
365.96 
370.636 
377.264 
387.426 
368.813 
392.268 
372.538 
360.704 
383.994 
388.167 
371.629 
393.385 
379.827 
385.405 
376.785 
390.367 
382.993 
378.01 
386.579 
394.403 
403.708 
387.923 
384.687 
393.638 
380.31 
389.758 
373.353 
386.766 
367.414 
386.973 
376.345 
388.38 
391.208 
386.919 
395.7 
382.902 
393.046 
381.582 
378.115 
400.343 
397.824 
386.643 
385.944 
394.538 
374.394 
397.853 
399.464 
390.133 
387.219 
395.759 
382.311 
396.35 
390.56 
404.726 
392.332 
405.683 
389.309 
398.813 
392.026 
391.78 
380.967 
407.938 
386.091 
400.618 
397.853 
399.856 
397.185 
392.078 
399.05 
406.701 
391.495 
393.711 
389.41 
395.678 
388.585 
396.832 
393.428 
411.02 
397.09 
393.505 
411.073 
386.361 
392.173 
395.788 
395.331 
409.496 
