ITEM: TIMESTEP
34300000
ITEM: NUMBER OF CELLS
100
ITEM: BOX BOUNDS ss rr pp
0 0.0001
0 1e-05
-0.5 0.5
ITEM: CELLS f_temp1[*] 
382.248 
371.918 
381.836 
380.671 
371.749 
379.194 
377.571 
379.568 
385.167 
380.559 
361.662 
373.082 
373.309 
388.067 
369.959 
379.919 
386.747 
386.007 
378.917 
377.454 
370.219 
392.54 
392.073 
377.543 
378.864 
373.328 
382.195 
385.019 
390.179 
377.954 
368.855 
387.906 
387.992 
396.157 
377.515 
398.305 
387.201 
387.371 
377.742 
388.808 
394.692 
394.611 
394.094 
389.216 
393.623 
398.052 
382.214 
386.23 
400.273 
387.934 
395.833 
398.737 
390.691 
384.222 
383.927 
386.74 
397.52 
393.821 
390.247 
396.578 
385.352 
394.311 
402.163 
379.339 
393.865 
387.685 
387.224 
400.743 
402.931 
384.261 
400.227 
392.199 
400.657 
380.665 
391.847 
376.08 
385.043 
390.696 
401.157 
392.454 
375.555 
401.812 
380.933 
399.878 
407.09 
399.504 
380.126 
384.613 
407.319 
391.456 
399.061 
408.966 
404.766 
393.509 
392.475 
403.05 
410.861 
399.847 
384.222 
391.946 
