ITEM: TIMESTEP
37200000
ITEM: NUMBER OF CELLS
100
ITEM: BOX BOUNDS ss rr pp
0 0.0001
0 1e-05
-0.5 0.5
ITEM: CELLS f_temp1[*] 
366.019 
371.135 
377.262 
382.694 
384.031 
391.245 
391.689 
376.62 
376.408 
378.856 
375.525 
379.849 
380.955 
367.888 
388.268 
392.999 
369.088 
387.981 
377.22 
390.796 
365.299 
382.568 
386.962 
393.193 
388.913 
380.977 
379.631 
388.474 
391.096 
377.498 
377.928 
388.201 
385.547 
393.699 
387.623 
377.957 
389.959 
388.206 
390.819 
381.163 
373.439 
401.13 
397.031 
373.943 
382.354 
385.354 
383.134 
393.736 
383.885 
397.621 
373.333 
382.957 
388.392 
385.319 
392.152 
380.432 
397.869 
380.66 
390.997 
398.11 
398.158 
400.365 
401.953 
381.608 
391.202 
407.133 
384.255 
379.064 
389.175 
383.521 
386.982 
386.796 
399.631 
384.738 
397.854 
392.841 
401.196 
385.001 
401.072 
398.216 
386.592 
395.037 
402.008 
410.116 
403.199 
386.767 
400.012 
391.56 
397.403 
406.443 
401.186 
404.548 
413.699 
400.446 
404.638 
395.438 
416.96 
394.427 
403.056 
419.063 
