ITEM: TIMESTEP
1910000
ITEM: NUMBER OF CELLS
100
ITEM: BOX BOUNDS ss rr pp
0 0.0001
0 1e-06
-0.5 0.5
ITEM: CELLS f_temp1[*] 
381.213 
384.983 
358.01 
337.457 
351.03 
363.351 
336.766 
374.072 
387.508 
354.195 
323.548 
380.364 
387.053 
367.839 
326.908 
390.679 
352.441 
375.436 
387.995 
373.932 
393.927 
370.148 
427.705 
378.048 
359.802 
381.944 
371.707 
362.051 
370.787 
332.591 
364.927 
360.323 
398.211 
357.298 
370.922 
349.96 
399.887 
363.351 
376.934 
352.336 
410.156 
380.351 
413.81 
400.558 
398.828 
381.096 
376.67 
430.848 
402.11 
405.455 
419.841 
360.218 
355.825 
433.514 
375.579 
371.366 
367.965 
419.073 
407.561 
380.028 
443.546 
427.764 
366.027 
362.556 
389.369 
389.452 
382.796 
390.43 
381.019 
398.843 
421.487 
387.424 
395.725 
446.929 
363.322 
428.966 
417.966 
413.685 
433.957 
416.664 
389.442 
404.141 
422.168 
405.213 
417.692 
391.829 
440.771 
450.756 
381.257 
432.333 
438.636 
410.156 
445.169 
373.542 
433.677 
395.373 
449.127 
486.667 
405.147 
461.833 
