ITEM: TIMESTEP
41100000
ITEM: NUMBER OF CELLS
100
ITEM: BOX BOUNDS ss rr pp
0 0.0001
0 1e-05
-0.5 0.5
ITEM: CELLS f_temp1[*] 
373.824 
369.925 
375.346 
383.151 
377.487 
369.644 
387.647 
374.685 
372.517 
380.72 
386.945 
386.745 
385.226 
374.054 
402.344 
380.447 
372.466 
378.408 
378.027 
372.01 
394.745 
381.847 
401.128 
391.2 
387.889 
378.987 
375.476 
383.766 
386.273 
389.218 
398.192 
378.206 
388.556 
376.789 
398.518 
381.281 
393.125 
384.203 
386.389 
394.586 
392.473 
389.03 
391.398 
384.356 
388.233 
379.377 
396.949 
394.077 
380.724 
380.112 
394.351 
384.987 
371.992 
378.394 
408.664 
373.289 
391.96 
386.885 
397.361 
405.173 
383.241 
395.999 
385.289 
394.749 
383.892 
384.48 
401.057 
389.391 
392.751 
384.652 
407.062 
389.833 
392.902 
392.526 
385.358 
390.854 
393.663 
391.745 
399.651 
382.947 
395.265 
392.044 
398.075 
405.254 
397.23 
400.259 
398.651 
396.152 
403.292 
390.132 
398.157 
387.341 
406.229 
398.752 
386.21 
406.941 
405.387 
393.252 
416.364 
386.767 
