ITEM: TIMESTEP
110000
ITEM: NUMBER OF CELLS
100
ITEM: BOX BOUNDS ss pp pp
0 0.001
0 1e-05
-0.5 0.5
ITEM: CELLS c_particles[1] 
142 
158 
117 
150 
152 
171 
149 
141 
143 
129 
112 
124 
125 
129 
135 
113 
124 
111 
133 
110 
132 
125 
118 
117 
101 
124 
115 
96 
100 
108 
116 
101 
112 
92 
91 
82 
89 
109 
96 
114 
98 
109 
101 
114 
112 
101 
104 
87 
84 
98 
107 
105 
89 
97 
103 
93 
101 
73 
98 
89 
91 
108 
90 
80 
77 
89 
75 
87 
89 
72 
71 
86 
87 
81 
102 
71 
78 
101 
68 
85 
90 
82 
90 
84 
79 
70 
81 
72 
79 
76 
65 
75 
60 
84 
74 
76 
88 
82 
58 
78 
