ITEM: TIMESTEP
115000
ITEM: NUMBER OF CELLS
100
ITEM: BOX BOUNDS ss pp pp
0 0.001
0 1e-05
-0.5 0.5
ITEM: CELLS c_particles[1] 
153 
153 
140 
133 
125 
128 
156 
140 
121 
105 
136 
132 
134 
119 
133 
134 
137 
106 
124 
110 
118 
136 
109 
109 
107 
108 
121 
125 
126 
128 
106 
101 
102 
126 
98 
99 
99 
100 
103 
94 
106 
115 
109 
103 
94 
97 
95 
96 
114 
83 
86 
102 
105 
98 
83 
87 
91 
98 
102 
93 
96 
98 
85 
81 
79 
86 
91 
81 
82 
85 
87 
82 
105 
86 
81 
74 
74 
78 
92 
76 
82 
71 
84 
70 
81 
62 
85 
81 
83 
87 
79 
84 
54 
65 
65 
70 
69 
79 
72 
87 
