ITEM: TIMESTEP
60000
ITEM: NUMBER OF CELLS
100
ITEM: BOX BOUNDS ss pp pp
0 0.001
0 1e-05
-0.5 0.5
ITEM: CELLS c_particles[1] 
140 
161 
139 
131 
107 
131 
136 
141 
136 
145 
130 
121 
144 
123 
133 
139 
134 
128 
115 
99 
117 
128 
114 
107 
129 
110 
112 
134 
116 
88 
102 
92 
82 
106 
105 
98 
93 
97 
97 
115 
96 
95 
113 
109 
108 
96 
95 
95 
101 
93 
102 
107 
94 
99 
74 
90 
94 
88 
92 
95 
85 
90 
78 
87 
77 
70 
85 
79 
79 
79 
108 
92 
91 
85 
87 
99 
94 
107 
73 
95 
80 
73 
84 
71 
92 
72 
76 
79 
78 
76 
94 
75 
82 
79 
72 
80 
59 
73 
83 
71 
