ITEM: TIMESTEP
245000
ITEM: NUMBER OF CELLS
100
ITEM: BOX BOUNDS ss pp pp
0 0.001
0 1e-05
-0.5 0.5
ITEM: CELLS c_particles[1] 
136 
151 
151 
160 
138 
156 
137 
115 
132 
154 
139 
110 
135 
128 
129 
119 
113 
137 
114 
114 
129 
110 
114 
99 
102 
133 
119 
121 
112 
107 
107 
106 
96 
100 
96 
106 
93 
71 
107 
101 
100 
97 
95 
112 
97 
107 
112 
95 
104 
99 
102 
79 
78 
100 
74 
85 
92 
106 
79 
89 
94 
94 
96 
82 
93 
83 
94 
104 
78 
88 
74 
100 
91 
84 
76 
76 
81 
94 
95 
90 
78 
89 
84 
74 
74 
84 
78 
66 
59 
72 
81 
70 
78 
78 
71 
69 
88 
83 
71 
87 
