ITEM: TIMESTEP
200000
ITEM: NUMBER OF CELLS
100
ITEM: BOX BOUNDS ss pp pp
0 0.001
0 1e-05
-0.5 0.5
ITEM: CELLS c_particles[1] 
167 
163 
144 
143 
149 
146 
139 
130 
123 
141 
143 
123 
116 
130 
130 
118 
121 
131 
138 
131 
111 
110 
111 
107 
114 
121 
124 
117 
104 
106 
109 
110 
108 
112 
104 
96 
112 
103 
97 
105 
103 
91 
87 
97 
99 
90 
105 
94 
105 
93 
95 
89 
106 
97 
87 
89 
82 
86 
93 
81 
94 
87 
87 
107 
76 
81 
94 
87 
80 
86 
62 
76 
96 
78 
87 
69 
83 
86 
74 
81 
73 
79 
79 
80 
79 
74 
84 
96 
82 
91 
73 
77 
70 
72 
81 
90 
67 
67 
61 
78 
