ITEM: TIMESTEP
175000
ITEM: NUMBER OF CELLS
100
ITEM: BOX BOUNDS ss pp pp
0 0.001
0 1e-05
-0.5 0.5
ITEM: CELLS c_particles[1] 
146 
159 
149 
135 
145 
131 
143 
134 
143 
125 
110 
119 
140 
137 
103 
129 
132 
127 
124 
120 
121 
130 
133 
108 
111 
135 
98 
114 
108 
111 
115 
103 
108 
109 
111 
86 
121 
105 
84 
89 
109 
101 
106 
108 
100 
84 
102 
108 
100 
84 
81 
93 
89 
84 
86 
92 
90 
95 
70 
96 
89 
84 
99 
96 
95 
82 
110 
85 
77 
88 
95 
75 
76 
85 
68 
80 
91 
87 
71 
82 
77 
79 
80 
78 
86 
84 
68 
77 
74 
79 
84 
78 
74 
87 
70 
80 
75 
79 
69 
78 
