ITEM: TIMESTEP
185000
ITEM: NUMBER OF CELLS
100
ITEM: BOX BOUNDS ss pp pp
0 0.001
0 1e-05
-0.5 0.5
ITEM: CELLS c_particles[1] 
148 
144 
135 
149 
117 
122 
142 
148 
137 
140 
135 
136 
117 
117 
118 
131 
127 
126 
120 
138 
125 
150 
121 
113 
112 
117 
100 
104 
120 
103 
101 
94 
104 
116 
101 
119 
98 
94 
110 
100 
115 
97 
95 
85 
92 
102 
85 
96 
88 
110 
106 
85 
86 
89 
92 
85 
83 
88 
92 
102 
78 
94 
93 
74 
92 
104 
93 
92 
85 
79 
81 
88 
63 
77 
90 
80 
80 
92 
89 
91 
58 
91 
93 
89 
80 
99 
105 
74 
98 
66 
78 
52 
84 
76 
77 
76 
70 
68 
71 
58 
