ITEM: TIMESTEP
150000
ITEM: NUMBER OF CELLS
100
ITEM: BOX BOUNDS ss pp pp
0 0.001
0 1e-05
-0.5 0.5
ITEM: CELLS c_particles[1] 
144 
156 
144 
113 
135 
164 
126 
122 
129 
123 
130 
124 
125 
135 
126 
120 
124 
115 
126 
98 
126 
113 
129 
90 
103 
123 
118 
110 
113 
100 
107 
109 
91 
105 
106 
116 
115 
96 
113 
108 
109 
93 
100 
96 
97 
102 
88 
94 
108 
88 
87 
84 
98 
90 
88 
96 
102 
100 
112 
99 
94 
85 
100 
102 
90 
78 
85 
79 
108 
102 
86 
90 
76 
87 
86 
81 
90 
85 
85 
86 
96 
70 
72 
88 
80 
82 
79 
71 
84 
78 
82 
76 
73 
84 
69 
64 
68 
61 
66 
81 
