ITEM: TIMESTEP
145000
ITEM: NUMBER OF CELLS
100
ITEM: BOX BOUNDS ss pp pp
0 0.001
0 1e-05
-0.5 0.5
ITEM: CELLS c_particles[1] 
148 
157 
138 
135 
140 
147 
146 
122 
124 
127 
128 
127 
122 
103 
105 
116 
117 
115 
155 
114 
137 
109 
134 
124 
115 
134 
114 
103 
105 
121 
124 
111 
98 
95 
102 
112 
101 
117 
107 
93 
86 
97 
103 
72 
85 
82 
82 
97 
86 
90 
84 
90 
91 
93 
103 
112 
74 
90 
97 
88 
98 
86 
78 
109 
84 
98 
99 
86 
96 
80 
92 
96 
97 
97 
94 
107 
95 
76 
77 
105 
91 
64 
70 
73 
71 
83 
94 
83 
77 
73 
74 
71 
67 
75 
75 
69 
71 
68 
82 
75 
