ITEM: TIMESTEP
245000
ITEM: NUMBER OF CELLS
100
ITEM: BOX BOUNDS ss pp pp
0 0.001
0 1e-05
-0.5 0.5
ITEM: CELLS f_temp1[*] 
346.686 
353.485 
360.533 
366.35 
371.259 
377.961 
381.81 
386.222 
391.307 
396.147 
399.672 
405.021 
408.133 
412.879 
417.319 
421.276 
424.912 
428.673 
434.646 
438.296 
442.497 
445.826 
449.636 
454.548 
456.602 
460.567 
465.142 
468.637 
473.427 
476.592 
479.837 
483.406 
485.366 
490.18 
492.037 
496.694 
499.494 
502.989 
505.731 
509.268 
511.513 
514.146 
519.407 
522.397 
523.844 
529.152 
533.122 
536.056 
537.908 
540.853 
546.224 
547.384 
549.474 
554.302 
556.063 
561.505 
566.187 
569.878 
571.984 
575.541 
578.05 
581.899 
586.598 
590.331 
593.639 
596.719 
598.624 
603.486 
606.527 
609.518 
612.513 
617.693 
619.844 
620.933 
624.076 
625.666 
631.277 
637.557 
634.646 
639.149 
643.401 
647.992 
649.611 
652.689 
656.608 
661.049 
664.834 
674.506 
671.693 
677.495 
680.45 
682.463 
686.929 
690.962 
693.076 
699.931 
704.309 
705.958 
714.181 
719.904 
