ITEM: TIMESTEP
20000
ITEM: NUMBER OF CELLS
100
ITEM: BOX BOUNDS ss pp pp
0 0.001
0 1e-05
-0.5 0.5
ITEM: CELLS f_temp1[*] 
346.77 
354.09 
360.52 
366.109 
371.975 
377.269 
382.514 
387.882 
391.762 
396.801 
402.165 
406.927 
410.596 
414.635 
418.149 
422.942 
426.056 
429.383 
433.998 
438.057 
442.66 
446.289 
450.151 
454.53 
457.622 
460.412 
464.972 
468.697 
474.421 
477.777 
481.1 
485.895 
487.217 
491.391 
495.794 
497.643 
501.336 
503.807 
506.833 
510.646 
515.886 
518.922 
522.394 
524.606 
528.365 
531.561 
534.858 
538.854 
542.29 
545.243 
549.534 
552.425 
554.737 
558.062 
560.397 
563.088 
566.615 
568.936 
574.569 
577.56 
581.093 
583.638 
587.923 
589.951 
593.212 
596.883 
599.988 
603.848 
609.408 
613.283 
615.742 
616.583 
619.179 
621.381 
624.944 
630.862 
635.003 
642.663 
638.294 
644.089 
648.37 
648.917 
652.531 
658.398 
658.16 
664.077 
668.823 
672.852 
670.806 
676.158 
679.414 
684.559 
690.428 
694.487 
696.873 
702.935 
702.754 
708.947 
712.641 
722.904 
