ITEM: TIMESTEP
15000
ITEM: NUMBER OF CELLS
100
ITEM: BOX BOUNDS ss pp pp
0 0.001
0 1e-05
-0.5 0.5
ITEM: CELLS f_temp1[*] 
346.604 
355.606 
361.787 
368.032 
372.976 
378.114 
382.875 
386.669 
390.356 
395.312 
398.395 
402.176 
406.242 
412.166 
416.446 
420.145 
424.908 
429.041 
434.233 
436.955 
441.052 
444.116 
449.359 
453.515 
456.506 
459.75 
465.815 
466.898 
471.554 
475.746 
479.204 
482.334 
486.093 
490.481 
494.402 
497.244 
500.327 
502.855 
505.956 
508.739 
513.16 
516.239 
520.943 
524.255 
526.122 
530.407 
533.64 
537.832 
541.626 
545.029 
547.701 
550.419 
556.338 
558.172 
562.593 
565.345 
568.137 
571.784 
574.527 
577.965 
580.649 
583.53 
586.628 
589.706 
591.675 
594.878 
598.219 
601.654 
605.127 
609.139 
611.065 
615.691 
619.096 
621.651 
626.284 
629.291 
630.64 
639.192 
636.583 
640.787 
646.027 
648.224 
650.394 
652.985 
655.435 
660.731 
664.461 
672.526 
667.614 
675.029 
680.927 
681.359 
685.656 
690.731 
695.417 
702.309 
707.842 
711.374 
713.057 
719.808 
