ITEM: TIMESTEP
60000
ITEM: NUMBER OF CELLS
100
ITEM: BOX BOUNDS ss pp pp
0 0.001
0 1e-05
-0.5 0.5
ITEM: CELLS f_temp1[*] 
347.215 
355.111 
362.033 
367.933 
372.876 
377.244 
381.092 
386.613 
392.154 
397.21 
402.164 
405.758 
410.22 
413.228 
417.501 
422.241 
424.763 
430.241 
434.938 
438.253 
442.224 
446.048 
450.654 
454.722 
457.661 
462.216 
465.211 
469.223 
472.574 
477.04 
482.511 
485.038 
489.898 
493.244 
494.925 
499.763 
502.817 
506.166 
508.886 
513.257 
516.969 
519.584 
523.282 
526.258 
528.947 
533.423 
534.628 
536.462 
540.291 
543.646 
547.128 
550.978 
554.139 
557.588 
560.657 
563.866 
568.209 
570.433 
574.506 
578.722 
581.378 
583.43 
588.046 
591.61 
597.332 
598.365 
601.869 
604.319 
608.028 
611.975 
613.787 
618.42 
621.021 
625.239 
626.787 
629.692 
632.214 
638.503 
634.153 
641.658 
646.496 
647.885 
651.567 
657.536 
660.942 
663.196 
667.316 
672.502 
668.626 
675.071 
681.363 
686.17 
687.477 
691.242 
695.763 
701.185 
704.598 
709.821 
715.803 
723.627 
