ITEM: TIMESTEP
7380000
ITEM: NUMBER OF CELLS
100
ITEM: BOX BOUNDS ss rr pp
0 0.0001
0 1e-06
-0.5 0.5
ITEM: CELLS c_particles[1] 
14 
10 
19 
27 
18 
10 
20 
16 
11 
18 
18 
15 
14 
11 
15 
15 
17 
16 
20 
21 
17 
14 
16 
20 
13 
21 
14 
17 
21 
16 
17 
12 
22 
18 
15 
20 
14 
18 
16 
8 
24 
21 
13 
16 
12 
20 
8 
19 
14 
19 
8 
22 
21 
19 
19 
18 
12 
19 
11 
20 
16 
13 
17 
16 
8 
16 
13 
12 
17 
20 
26 
17 
15 
19 
9 
14 
19 
24 
17 
10 
19 
15 
13 
15 
16 
11 
14 
18 
22 
22 
13 
8 
13 
12 
18 
7 
15 
12 
15 
15 
