ITEM: TIMESTEP
7020000
ITEM: NUMBER OF CELLS
100
ITEM: BOX BOUNDS ss rr pp
0 0.0001
0 1e-06
-0.5 0.5
ITEM: CELLS c_particles[1] 
17 
18 
11 
11 
10 
19 
16 
17 
14 
13 
17 
17 
20 
18 
17 
11 
10 
20 
17 
22 
17 
9 
16 
17 
15 
17 
12 
15 
22 
19 
15 
24 
10 
20 
16 
10 
22 
20 
9 
23 
19 
17 
16 
11 
14 
13 
12 
10 
12 
14 
14 
16 
27 
16 
14 
18 
17 
14 
10 
18 
23 
14 
15 
17 
12 
17 
15 
23 
14 
23 
15 
22 
15 
10 
18 
19 
14 
14 
20 
11 
9 
26 
20 
22 
18 
17 
19 
21 
13 
10 
13 
16 
14 
9 
13 
16 
21 
20 
12 
15 
