ITEM: TIMESTEP
87200000
ITEM: NUMBER OF CELLS
100
ITEM: BOX BOUNDS ss rr pp
0 0.0001
0 1e-05
-0.5 0.5
ITEM: CELLS c_particles[1] 
14 
9 
20 
21 
22 
16 
8 
21 
14 
23 
19 
9 
12 
14 
15 
16 
16 
17 
15 
15 
18 
7 
14 
15 
13 
13 
18 
13 
15 
15 
17 
16 
22 
19 
18 
15 
23 
17 
18 
23 
16 
15 
10 
13 
17 
12 
13 
22 
10 
17 
22 
15 
14 
16 
9 
16 
9 
15 
12 
13 
23 
20 
18 
15 
18 
18 
14 
9 
13 
17 
17 
13 
17 
17 
23 
22 
14 
11 
17 
23 
12 
14 
15 
13 
15 
19 
16 
16 
23 
14 
16 
36 
13 
16 
13 
21 
14 
14 
19 
11 
