ITEM: TIMESTEP
2770000
ITEM: NUMBER OF CELLS
100
ITEM: BOX BOUNDS ss rr pp
0 0.0001
0 1e-06
-0.5 0.5
ITEM: CELLS c_particles[1] 
23 
15 
20 
13 
13 
20 
21 
17 
14 
24 
17 
10 
24 
15 
19 
13 
21 
23 
16 
16 
14 
23 
22 
20 
14 
17 
21 
23 
11 
16 
14 
16 
23 
7 
13 
9 
10 
14 
20 
18 
21 
16 
12 
16 
18 
17 
17 
15 
14 
17 
18 
18 
18 
12 
18 
22 
17 
16 
21 
6 
15 
18 
17 
17 
15 
16 
10 
13 
16 
15 
8 
16 
21 
10 
9 
13 
15 
15 
14 
11 
12 
16 
18 
13 
16 
19 
18 
13 
12 
18 
15 
11 
22 
10 
20 
16 
15 
15 
10 
19 
