ITEM: TIMESTEP
4930000
ITEM: NUMBER OF CELLS
100
ITEM: BOX BOUNDS ss rr pp
0 0.0001
0 1e-06
-0.5 0.5
ITEM: CELLS c_particles[1] 
17 
17 
13 
14 
18 
16 
26 
16 
15 
15 
16 
22 
21 
11 
9 
11 
14 
15 
18 
27 
12 
12 
15 
18 
15 
23 
16 
17 
18 
16 
20 
21 
17 
16 
20 
23 
12 
12 
13 
14 
20 
14 
14 
14 
18 
16 
21 
15 
6 
14 
12 
12 
17 
18 
22 
19 
19 
19 
23 
10 
11 
14 
13 
15 
12 
14 
11 
17 
18 
16 
16 
11 
15 
20 
13 
9 
16 
18 
11 
19 
28 
13 
19 
11 
26 
17 
18 
16 
14 
13 
9 
20 
16 
21 
14 
10 
18 
11 
21 
12 
