ITEM: TIMESTEP
15900000
ITEM: NUMBER OF CELLS
100
ITEM: BOX BOUNDS ss rr pp
0 0.0001
0 1e-05
-0.5 0.5
ITEM: CELLS c_particles[1] 
17 
15 
17 
10 
18 
15 
21 
19 
18 
11 
23 
15 
18 
15 
21 
24 
20 
15 
23 
18 
20 
17 
14 
17 
16 
12 
16 
17 
18 
12 
10 
17 
13 
13 
13 
15 
14 
20 
17 
22 
14 
14 
20 
15 
26 
25 
19 
13 
14 
8 
14 
16 
21 
15 
13 
15 
19 
26 
15 
14 
17 
19 
11 
16 
9 
15 
16 
9 
13 
17 
15 
16 
18 
10 
14 
7 
17 
7 
16 
16 
12 
7 
18 
6 
20 
23 
14 
11 
21 
19 
14 
13 
14 
24 
22 
18 
17 
13 
16 
18 
