ITEM: TIMESTEP
45000000
ITEM: NUMBER OF CELLS
100
ITEM: BOX BOUNDS ss rr pp
0 0.0001
0 1e-05
-0.5 0.5
ITEM: CELLS c_particles[1] 
14 
11 
18 
15 
26 
25 
17 
16 
20 
15 
18 
13 
19 
19 
13 
15 
16 
19 
21 
18 
19 
14 
15 
15 
12 
16 
13 
21 
19 
23 
11 
16 
15 
12 
15 
17 
15 
15 
11 
25 
13 
14 
15 
10 
16 
21 
7 
17 
17 
25 
14 
14 
24 
17 
14 
11 
17 
10 
21 
14 
14 
15 
13 
15 
25 
16 
15 
15 
20 
15 
16 
16 
12 
13 
22 
7 
17 
20 
14 
16 
19 
11 
15 
11 
14 
24 
9 
15 
14 
18 
17 
18 
18 
20 
18 
9 
18 
11 
15 
12 
