ITEM: TIMESTEP
49300000
ITEM: NUMBER OF CELLS
100
ITEM: BOX BOUNDS ss rr pp
0 0.0001
0 1e-05
-0.5 0.5
ITEM: CELLS c_particles[1] 
21 
17 
14 
17 
19 
14 
11 
21 
17 
14 
17 
17 
19 
12 
18 
17 
13 
12 
12 
19 
28 
13 
18 
18 
16 
23 
14 
16 
20 
13 
19 
21 
13 
15 
16 
8 
16 
11 
14 
21 
22 
17 
13 
18 
14 
17 
22 
18 
11 
15 
9 
18 
12 
23 
27 
20 
15 
18 
12 
23 
15 
13 
16 
10 
14 
16 
12 
12 
19 
18 
12 
14 
18 
14 
15 
19 
21 
17 
20 
16 
21 
16 
10 
12 
17 
17 
18 
13 
13 
18 
19 
9 
9 
16 
10 
8 
18 
16 
14 
17 
