ITEM: TIMESTEP
2570000
ITEM: NUMBER OF CELLS
100
ITEM: BOX BOUNDS ss rr pp
0 0.0001
0 1e-06
-0.5 0.5
ITEM: CELLS c_particles[1] 
16 
17 
17 
10 
15 
9 
14 
22 
10 
16 
23 
13 
16 
19 
13 
22 
18 
14 
15 
13 
18 
14 
16 
17 
10 
17 
13 
18 
20 
16 
13 
16 
22 
13 
14 
17 
21 
15 
23 
15 
12 
22 
13 
18 
11 
18 
17 
15 
10 
14 
14 
21 
16 
19 
16 
19 
14 
17 
17 
16 
17 
20 
14 
14 
14 
16 
15 
12 
15 
13 
17 
24 
15 
20 
15 
14 
21 
18 
16 
22 
20 
7 
15 
16 
11 
24 
18 
19 
17 
16 
11 
18 
14 
14 
15 
15 
11 
18 
12 
18 
