ITEM: TIMESTEP
10800000
ITEM: NUMBER OF CELLS
100
ITEM: BOX BOUNDS ss rr pp
0 0.0001
0 1e-05
-0.5 0.5
ITEM: CELLS c_particles[1] 
17 
15 
18 
20 
16 
19 
16 
16 
17 
22 
16 
22 
11 
9 
17 
21 
22 
21 
16 
16 
15 
24 
12 
19 
16 
16 
18 
20 
11 
11 
25 
13 
18 
23 
9 
16 
11 
21 
15 
9 
18 
19 
18 
16 
13 
10 
13 
11 
21 
23 
17 
14 
15 
19 
9 
20 
10 
16 
23 
24 
14 
15 
17 
16 
15 
17 
10 
14 
17 
12 
18 
12 
14 
15 
15 
16 
12 
20 
21 
17 
14 
14 
14 
15 
20 
19 
14 
16 
13 
13 
15 
18 
14 
15 
19 
15 
10 
14 
9 
14 
