ITEM: TIMESTEP
9200000
ITEM: NUMBER OF CELLS
100
ITEM: BOX BOUNDS ss rr pp
0 0.0001
0 1e-05
-0.5 0.5
ITEM: CELLS c_particles[1] 
17 
17 
16 
15 
11 
13 
28 
21 
18 
16 
19 
18 
13 
21 
20 
16 
19 
13 
19 
14 
22 
14 
20 
15 
13 
18 
10 
19 
15 
17 
19 
15 
15 
10 
19 
18 
20 
12 
17 
23 
16 
11 
21 
12 
19 
20 
14 
22 
15 
14 
16 
9 
18 
15 
12 
10 
19 
17 
14 
19 
18 
17 
18 
13 
17 
18 
11 
14 
13 
11 
17 
16 
20 
14 
12 
14 
18 
21 
12 
18 
14 
15 
19 
11 
14 
12 
12 
18 
13 
13 
16 
21 
19 
16 
15 
15 
16 
10 
13 
18 
