ITEM: TIMESTEP
3570000
ITEM: NUMBER OF CELLS
100
ITEM: BOX BOUNDS ss rr pp
0 0.0001
0 1e-06
-0.5 0.5
ITEM: CELLS c_particles[1] 
16 
15 
12 
24 
14 
18 
17 
18 
16 
20 
25 
18 
18 
15 
19 
18 
10 
17 
15 
14 
17 
21 
13 
20 
26 
17 
19 
20 
14 
7 
19 
16 
14 
18 
16 
12 
14 
20 
19 
20 
21 
17 
15 
14 
12 
15 
15 
17 
14 
15 
19 
15 
16 
19 
12 
14 
17 
18 
15 
19 
12 
14 
18 
18 
17 
17 
16 
12 
16 
18 
12 
15 
22 
13 
12 
18 
14 
18 
10 
17 
13 
13 
16 
9 
15 
21 
17 
8 
15 
11 
14 
18 
12 
22 
9 
26 
12 
13 
11 
16 
