ITEM: TIMESTEP
4440000
ITEM: NUMBER OF CELLS
100
ITEM: BOX BOUNDS ss rr pp
0 0.0001
0 1e-06
-0.5 0.5
ITEM: CELLS c_particles[1] 
21 
17 
22 
19 
19 
10 
20 
15 
25 
10 
10 
18 
21 
18 
13 
11 
23 
21 
10 
13 
9 
11 
19 
25 
15 
18 
15 
20 
19 
17 
10 
14 
9 
13 
18 
17 
19 
18 
14 
18 
16 
13 
18 
12 
15 
15 
19 
19 
14 
21 
19 
15 
16 
12 
16 
13 
14 
21 
18 
16 
13 
19 
17 
19 
18 
21 
14 
18 
20 
10 
17 
8 
21 
13 
11 
10 
12 
13 
14 
14 
15 
14 
24 
18 
12 
24 
21 
14 
22 
18 
15 
13 
12 
12 
12 
13 
21 
12 
18 
12 
