ITEM: TIMESTEP
94600000
ITEM: NUMBER OF CELLS
100
ITEM: BOX BOUNDS ss rr pp
0 0.0001
0 1e-05
-0.5 0.5
ITEM: CELLS c_particles[1] 
18 
19 
16 
11 
18 
12 
18 
13 
19 
20 
9 
16 
15 
16 
16 
22 
21 
13 
22 
19 
20 
17 
16 
10 
15 
16 
12 
14 
17 
23 
10 
16 
13 
22 
17 
15 
11 
13 
10 
16 
21 
24 
19 
13 
10 
18 
21 
21 
15 
17 
15 
15 
9 
17 
19 
14 
12 
10 
21 
15 
18 
12 
22 
12 
19 
16 
18 
14 
16 
14 
19 
23 
18 
12 
14 
13 
15 
16 
17 
19 
12 
15 
16 
20 
19 
16 
19 
20 
13 
17 
9 
24 
16 
16 
19 
22 
7 
9 
10 
12 
