ITEM: TIMESTEP
860000
ITEM: NUMBER OF CELLS
100
ITEM: BOX BOUNDS ss rr pp
0 0.0001
0 1e-06
-0.5 0.5
ITEM: CELLS c_particles[1] 
23 
18 
15 
21 
7 
14 
8 
17 
13 
14 
17 
17 
26 
17 
19 
22 
13 
13 
18 
20 
19 
14 
22 
17 
14 
25 
18 
17 
16 
17 
18 
14 
14 
9 
7 
22 
28 
18 
16 
16 
13 
23 
12 
22 
22 
16 
21 
19 
12 
17 
22 
18 
17 
14 
11 
20 
13 
15 
21 
15 
17 
14 
15 
15 
11 
16 
20 
15 
15 
5 
7 
17 
21 
14 
11 
11 
15 
11 
12 
19 
18 
19 
16 
16 
15 
10 
19 
15 
13 
18 
15 
14 
12 
8 
19 
16 
21 
13 
16 
10 
