ITEM: TIMESTEP
64000000
ITEM: NUMBER OF CELLS
100
ITEM: BOX BOUNDS ss rr pp
0 0.0001
0 1e-05
-0.5 0.5
ITEM: CELLS c_particles[1] 
19 
18 
22 
13 
13 
15 
12 
19 
13 
16 
11 
11 
10 
11 
17 
18 
19 
19 
16 
17 
12 
11 
13 
17 
12 
22 
22 
21 
17 
12 
12 
12 
12 
13 
12 
16 
15 
15 
16 
18 
16 
17 
15 
27 
19 
26 
16 
18 
16 
11 
23 
13 
10 
19 
17 
18 
20 
18 
17 
18 
15 
18 
17 
12 
23 
22 
15 
9 
14 
21 
20 
20 
13 
13 
13 
10 
10 
11 
19 
18 
16 
15 
17 
18 
8 
14 
14 
11 
21 
21 
14 
14 
23 
15 
20 
10 
21 
13 
23 
16 
