ITEM: TIMESTEP
81700000
ITEM: NUMBER OF CELLS
100
ITEM: BOX BOUNDS ss rr pp
0 0.0001
0 1e-05
-0.5 0.5
ITEM: CELLS c_particles[1] 
13 
13 
9 
17 
17 
12 
17 
20 
19 
20 
19 
19 
17 
21 
15 
16 
14 
14 
20 
26 
21 
15 
14 
9 
15 
13 
19 
16 
8 
23 
19 
16 
12 
12 
11 
20 
12 
19 
17 
16 
18 
15 
16 
14 
14 
19 
11 
14 
13 
17 
16 
19 
18 
12 
16 
12 
18 
18 
9 
21 
21 
9 
18 
21 
14 
19 
22 
23 
17 
10 
20 
18 
22 
12 
19 
20 
16 
18 
16 
18 
15 
11 
14 
8 
16 
13 
14 
11 
10 
17 
17 
16 
15 
16 
11 
26 
12 
10 
15 
25 
