ITEM: TIMESTEP
9450000
ITEM: NUMBER OF CELLS
100
ITEM: BOX BOUNDS ss rr pp
0 0.0001
0 1e-06
-0.5 0.5
ITEM: CELLS c_particles[1] 
16 
11 
12 
18 
19 
16 
13 
17 
19 
19 
12 
20 
25 
26 
21 
23 
29 
13 
18 
16 
14 
18 
22 
17 
17 
18 
16 
17 
15 
11 
20 
15 
20 
21 
21 
21 
13 
18 
17 
24 
12 
19 
15 
12 
13 
12 
16 
12 
16 
22 
11 
12 
17 
14 
15 
13 
17 
13 
21 
6 
18 
10 
13 
12 
16 
18 
12 
11 
25 
18 
12 
8 
9 
17 
18 
21 
28 
15 
20 
12 
10 
15 
11 
16 
15 
16 
10 
12 
16 
10 
12 
12 
9 
18 
20 
13 
17 
15 
15 
19 
