ITEM: TIMESTEP
4980000
ITEM: NUMBER OF CELLS
100
ITEM: BOX BOUNDS ss rr pp
0 0.0001
0 1e-06
-0.5 0.5
ITEM: CELLS c_particles[1] 
21 
23 
15 
13 
15 
11 
22 
21 
18 
20 
17 
12 
16 
10 
23 
23 
17 
15 
10 
17 
22 
17 
23 
19 
17 
19 
16 
18 
11 
20 
12 
10 
10 
20 
21 
10 
12 
24 
17 
17 
7 
14 
19 
9 
15 
19 
20 
20 
22 
17 
23 
19 
19 
12 
15 
14 
16 
17 
18 
14 
13 
21 
15 
16 
11 
12 
15 
9 
13 
17 
20 
10 
15 
17 
15 
12 
19 
18 
12 
9 
15 
16 
10 
18 
12 
18 
14 
15 
19 
13 
14 
17 
18 
13 
15 
11 
23 
11 
23 
13 
