ITEM: TIMESTEP
85000000
ITEM: NUMBER OF CELLS
100
ITEM: BOX BOUNDS ss rr pp
0 0.0001
0 1e-05
-0.5 0.5
ITEM: CELLS c_particles[1] 
19 
8 
21 
20 
16 
13 
21 
21 
19 
22 
5 
18 
11 
20 
10 
21 
21 
13 
8 
10 
15 
14 
20 
30 
11 
23 
11 
13 
16 
11 
15 
12 
17 
24 
10 
20 
16 
20 
14 
19 
9 
11 
13 
19 
17 
14 
23 
18 
17 
19 
13 
17 
18 
12 
13 
19 
16 
17 
20 
11 
17 
14 
20 
16 
19 
15 
14 
11 
22 
14 
9 
19 
9 
19 
15 
19 
13 
19 
17 
20 
16 
15 
12 
18 
14 
13 
18 
15 
17 
16 
20 
14 
22 
22 
16 
14 
11 
10 
18 
14 
