ITEM: TIMESTEP
58400000
ITEM: NUMBER OF CELLS
100
ITEM: BOX BOUNDS ss rr pp
0 0.0001
0 1e-05
-0.5 0.5
ITEM: CELLS c_particles[1] 
20 
12 
11 
15 
22 
23 
13 
15 
18 
15 
13 
17 
18 
19 
25 
19 
22 
9 
16 
19 
18 
12 
13 
10 
17 
14 
10 
17 
23 
19 
13 
11 
11 
21 
15 
11 
23 
10 
17 
14 
20 
14 
15 
13 
16 
16 
13 
12 
23 
17 
15 
16 
16 
20 
19 
10 
18 
13 
13 
14 
18 
14 
13 
11 
14 
16 
19 
17 
13 
22 
22 
19 
12 
13 
18 
19 
22 
15 
15 
17 
22 
26 
26 
9 
20 
9 
18 
14 
18 
16 
11 
12 
11 
14 
19 
14 
11 
16 
17 
15 
