ITEM: TIMESTEP
17500000
ITEM: NUMBER OF CELLS
100
ITEM: BOX BOUNDS ss rr pp
0 0.0001
0 1e-05
-0.5 0.5
ITEM: CELLS c_particles[1] 
18 
13 
17 
16 
12 
18 
16 
14 
16 
10 
16 
16 
20 
8 
15 
21 
15 
8 
14 
16 
11 
14 
15 
20 
10 
22 
15 
24 
18 
14 
17 
13 
23 
24 
18 
13 
11 
13 
14 
20 
9 
16 
11 
21 
20 
17 
15 
15 
22 
16 
23 
13 
15 
14 
11 
18 
16 
24 
16 
16 
18 
16 
15 
14 
25 
20 
19 
17 
17 
11 
16 
11 
11 
15 
15 
11 
14 
13 
20 
19 
18 
14 
20 
18 
18 
16 
20 
13 
15 
16 
16 
12 
22 
14 
17 
17 
17 
11 
18 
15 
