ITEM: TIMESTEP
6610000
ITEM: NUMBER OF CELLS
100
ITEM: BOX BOUNDS ss rr pp
0 0.0001
0 1e-06
-0.5 0.5
ITEM: CELLS c_particles[1] 
22 
20 
17 
10 
14 
14 
18 
13 
22 
21 
13 
19 
19 
18 
21 
9 
13 
16 
22 
15 
13 
21 
13 
17 
19 
15 
17 
15 
15 
17 
17 
14 
17 
19 
12 
20 
18 
15 
14 
11 
13 
8 
13 
16 
19 
10 
23 
10 
20 
16 
17 
18 
18 
14 
11 
19 
12 
13 
15 
14 
20 
10 
26 
21 
11 
5 
13 
17 
13 
12 
17 
23 
13 
20 
13 
20 
13 
14 
18 
11 
13 
21 
16 
20 
15 
23 
17 
17 
16 
15 
18 
21 
22 
9 
16 
23 
13 
14 
15 
12 
