ITEM: TIMESTEP
8530000
ITEM: NUMBER OF CELLS
100
ITEM: BOX BOUNDS ss rr pp
0 0.0001
0 1e-06
-0.5 0.5
ITEM: CELLS c_particles[1] 
21 
14 
18 
15 
19 
13 
20 
14 
26 
18 
17 
20 
14 
14 
17 
17 
26 
20 
26 
20 
16 
15 
12 
9 
18 
15 
13 
18 
14 
15 
15 
15 
15 
22 
20 
17 
15 
25 
12 
24 
9 
7 
18 
18 
11 
21 
24 
20 
14 
14 
15 
21 
10 
15 
14 
12 
20 
16 
25 
18 
15 
15 
20 
20 
15 
12 
11 
15 
14 
13 
19 
11 
11 
15 
22 
19 
15 
12 
12 
16 
20 
17 
16 
12 
15 
18 
13 
20 
11 
13 
16 
14 
17 
12 
15 
7 
11 
8 
10 
17 
