ITEM: TIMESTEP
46100000
ITEM: NUMBER OF CELLS
100
ITEM: BOX BOUNDS ss rr pp
0 0.0001
0 1e-05
-0.5 0.5
ITEM: CELLS c_particles[1] 
11 
25 
16 
26 
16 
18 
14 
21 
13 
10 
12 
24 
22 
19 
17 
19 
14 
13 
11 
19 
8 
20 
22 
12 
15 
12 
13 
13 
14 
22 
15 
12 
14 
13 
11 
21 
22 
21 
9 
23 
9 
19 
17 
20 
9 
24 
17 
19 
26 
26 
15 
14 
12 
11 
14 
10 
13 
13 
22 
23 
15 
7 
13 
10 
16 
7 
18 
16 
15 
7 
16 
18 
16 
12 
15 
18 
15 
16 
9 
20 
15 
16 
23 
20 
20 
17 
18 
11 
10 
16 
14 
22 
18 
13 
19 
14 
16 
12 
28 
14 
