ITEM: TIMESTEP
60000000
ITEM: NUMBER OF CELLS
100
ITEM: BOX BOUNDS ss rr pp
0 0.0001
0 1e-05
-0.5 0.5
ITEM: CELLS c_particles[1] 
22 
15 
22 
13 
22 
13 
13 
18 
15 
21 
16 
18 
18 
16 
19 
18 
9 
17 
18 
12 
6 
12 
19 
14 
15 
26 
17 
15 
19 
17 
14 
13 
17 
15 
15 
15 
11 
15 
13 
6 
24 
17 
17 
16 
17 
16 
14 
12 
13 
13 
17 
14 
16 
18 
17 
15 
16 
21 
17 
16 
14 
9 
21 
14 
14 
19 
18 
14 
18 
14 
16 
16 
19 
13 
19 
18 
12 
18 
15 
21 
16 
21 
17 
14 
12 
13 
16 
16 
25 
16 
24 
14 
20 
18 
9 
17 
11 
18 
11 
15 
