ITEM: TIMESTEP
4960000
ITEM: NUMBER OF CELLS
100
ITEM: BOX BOUNDS ss rr pp
0 0.0001
0 1e-06
-0.5 0.5
ITEM: CELLS c_particles[1] 
19 
13 
17 
15 
22 
16 
18 
12 
17 
18 
18 
12 
17 
21 
13 
22 
17 
16 
9 
22 
15 
20 
10 
29 
19 
16 
11 
17 
19 
14 
24 
24 
26 
15 
18 
13 
16 
22 
19 
18 
15 
19 
18 
12 
14 
21 
15 
20 
14 
13 
13 
13 
15 
12 
15 
15 
21 
13 
14 
15 
14 
13 
13 
16 
17 
15 
19 
18 
21 
12 
14 
12 
13 
18 
24 
12 
11 
12 
14 
11 
13 
18 
11 
19 
11 
16 
24 
18 
11 
11 
19 
13 
10 
16 
17 
11 
12 
13 
14 
18 
