ITEM: TIMESTEP
1580000
ITEM: NUMBER OF CELLS
100
ITEM: BOX BOUNDS ss rr pp
0 0.0001
0 1e-06
-0.5 0.5
ITEM: CELLS c_particles[1] 
17 
16 
20 
19 
14 
17 
17 
18 
19 
22 
17 
17 
21 
17 
12 
11 
23 
17 
8 
22 
22 
10 
18 
12 
19 
14 
16 
23 
10 
11 
14 
13 
13 
14 
12 
18 
21 
15 
19 
29 
20 
19 
17 
13 
17 
20 
9 
22 
12 
18 
19 
15 
14 
10 
17 
17 
16 
11 
21 
11 
18 
18 
12 
10 
17 
13 
23 
12 
21 
22 
12 
13 
18 
11 
13 
19 
14 
9 
19 
13 
14 
10 
22 
11 
14 
14 
21 
9 
13 
12 
16 
13 
19 
20 
14 
12 
17 
23 
12 
22 
