ITEM: TIMESTEP
67300000
ITEM: NUMBER OF CELLS
100
ITEM: BOX BOUNDS ss rr pp
0 0.0001
0 1e-05
-0.5 0.5
ITEM: CELLS c_particles[1] 
22 
14 
16 
18 
12 
12 
13 
13 
19 
21 
21 
21 
15 
17 
13 
18 
17 
17 
18 
10 
13 
19 
18 
13 
13 
14 
17 
19 
19 
20 
9 
17 
15 
12 
18 
21 
11 
15 
21 
21 
14 
7 
13 
15 
17 
14 
25 
13 
12 
11 
12 
13 
11 
13 
21 
12 
20 
22 
21 
13 
7 
17 
13 
19 
14 
12 
23 
12 
21 
18 
13 
16 
13 
22 
15 
17 
13 
15 
19 
18 
15 
13 
17 
18 
17 
17 
25 
18 
17 
14 
12 
10 
20 
23 
14 
14 
22 
11 
17 
18 
