ITEM: TIMESTEP
79600000
ITEM: NUMBER OF CELLS
100
ITEM: BOX BOUNDS ss rr pp
0 0.0001
0 1e-05
-0.5 0.5
ITEM: CELLS c_particles[1] 
18 
20 
19 
8 
26 
14 
21 
19 
12 
25 
12 
16 
19 
12 
17 
22 
11 
14 
19 
14 
21 
16 
21 
11 
17 
16 
21 
12 
15 
17 
15 
12 
13 
13 
18 
21 
13 
17 
15 
16 
22 
17 
18 
21 
14 
15 
14 
15 
17 
15 
13 
11 
20 
21 
14 
12 
19 
10 
4 
11 
13 
18 
20 
22 
18 
15 
13 
19 
12 
18 
11 
15 
21 
13 
4 
15 
13 
18 
11 
24 
12 
16 
13 
10 
17 
18 
17 
21 
22 
16 
22 
20 
12 
9 
15 
19 
13 
19 
18 
17 
