ITEM: TIMESTEP
80200000
ITEM: NUMBER OF CELLS
100
ITEM: BOX BOUNDS ss rr pp
0 0.0001
0 1e-05
-0.5 0.5
ITEM: CELLS c_particles[1] 
10 
11 
17 
12 
19 
12 
18 
12 
24 
19 
12 
17 
20 
15 
17 
13 
14 
25 
12 
14 
21 
18 
15 
14 
11 
18 
13 
18 
14 
20 
14 
10 
21 
15 
22 
18 
12 
20 
19 
20 
21 
18 
11 
15 
16 
15 
15 
17 
17 
13 
20 
16 
16 
18 
14 
13 
19 
12 
19 
17 
16 
22 
17 
21 
19 
21 
21 
21 
16 
13 
12 
14 
17 
20 
15 
20 
14 
16 
13 
13 
15 
15 
15 
16 
18 
16 
7 
18 
18 
18 
14 
13 
14 
14 
11 
16 
16 
13 
9 
15 
