ITEM: TIMESTEP
16400000
ITEM: NUMBER OF CELLS
100
ITEM: BOX BOUNDS ss rr pp
0 0.0001
0 1e-05
-0.5 0.5
ITEM: CELLS c_particles[1] 
16 
17 
17 
13 
15 
21 
22 
19 
12 
15 
15 
25 
24 
18 
19 
14 
17 
13 
26 
13 
16 
26 
16 
19 
16 
17 
14 
22 
10 
15 
17 
11 
12 
20 
13 
17 
13 
12 
10 
18 
16 
15 
26 
11 
15 
19 
20 
16 
17 
15 
20 
13 
9 
16 
18 
11 
24 
14 
15 
15 
17 
13 
19 
15 
15 
12 
18 
16 
16 
14 
14 
13 
22 
16 
15 
17 
14 
14 
17 
13 
13 
22 
12 
18 
12 
14 
18 
14 
20 
18 
19 
13 
13 
13 
17 
11 
13 
15 
12 
13 
