ITEM: TIMESTEP
99300000
ITEM: NUMBER OF CELLS
100
ITEM: BOX BOUNDS ss rr pp
0 0.0001
0 1e-05
-0.5 0.5
ITEM: CELLS c_particles[1] 
10 
18 
19 
21 
21 
13 
17 
10 
16 
10 
14 
15 
14 
16 
16 
13 
19 
19 
23 
14 
13 
9 
23 
17 
21 
17 
15 
17 
18 
20 
18 
12 
11 
17 
9 
19 
12 
20 
31 
15 
18 
13 
20 
16 
7 
20 
15 
17 
15 
17 
20 
15 
14 
21 
17 
13 
17 
14 
19 
18 
19 
18 
16 
10 
19 
23 
15 
14 
18 
15 
20 
14 
20 
16 
16 
13 
10 
22 
8 
15 
23 
12 
16 
15 
17 
11 
11 
17 
16 
13 
16 
14 
22 
10 
13 
14 
15 
19 
12 
15 
