ITEM: TIMESTEP
70700000
ITEM: NUMBER OF CELLS
100
ITEM: BOX BOUNDS ss rr pp
0 0.0001
0 1e-05
-0.5 0.5
ITEM: CELLS c_particles[1] 
14 
10 
16 
14 
23 
12 
15 
10 
20 
16 
17 
21 
12 
16 
21 
14 
10 
19 
20 
8 
20 
19 
21 
10 
10 
14 
23 
16 
11 
10 
17 
15 
25 
22 
19 
13 
15 
9 
26 
10 
8 
16 
19 
16 
19 
19 
9 
12 
17 
19 
21 
13 
8 
17 
14 
23 
11 
17 
18 
14 
25 
27 
26 
14 
18 
20 
14 
15 
17 
14 
14 
12 
15 
23 
13 
18 
11 
8 
16 
17 
15 
16 
17 
17 
11 
23 
14 
17 
17 
20 
9 
12 
12 
20 
14 
18 
20 
16 
17 
15 
