ITEM: TIMESTEP
7550000
ITEM: NUMBER OF CELLS
100
ITEM: BOX BOUNDS ss rr pp
0 0.0001
0 1e-06
-0.5 0.5
ITEM: CELLS c_particles[1] 
14 
22 
21 
19 
13 
13 
13 
9 
23 
11 
10 
15 
14 
16 
15 
24 
13 
18 
16 
13 
11 
18 
17 
15 
17 
25 
13 
13 
15 
13 
17 
17 
13 
13 
18 
16 
13 
16 
21 
11 
11 
12 
22 
14 
19 
11 
21 
16 
26 
11 
21 
13 
16 
16 
11 
25 
19 
19 
16 
17 
12 
20 
16 
12 
16 
17 
22 
14 
12 
14 
18 
15 
11 
16 
20 
13 
16 
15 
16 
18 
19 
16 
15 
19 
18 
19 
14 
9 
11 
19 
21 
10 
15 
14 
19 
19 
10 
24 
17 
19 
