ITEM: TIMESTEP
1400000
ITEM: NUMBER OF CELLS
100
ITEM: BOX BOUNDS ss rr pp
0 0.0001
0 1e-05
-0.5 0.5
ITEM: CELLS c_particles[1] 
18 
26 
12 
27 
11 
18 
17 
10 
19 
17 
15 
13 
10 
13 
13 
20 
17 
13 
12 
24 
15 
18 
13 
20 
18 
24 
12 
16 
21 
21 
18 
13 
19 
11 
13 
11 
14 
14 
12 
13 
14 
12 
12 
20 
13 
15 
18 
18 
7 
22 
13 
17 
21 
15 
19 
17 
17 
12 
15 
20 
10 
18 
12 
19 
14 
17 
26 
22 
14 
11 
14 
18 
20 
15 
15 
16 
14 
16 
10 
12 
15 
14 
15 
22 
13 
17 
13 
17 
18 
19 
17 
16 
22 
20 
15 
14 
11 
20 
10 
21 
