ITEM: TIMESTEP
4050000
ITEM: NUMBER OF CELLS
100
ITEM: BOX BOUNDS ss rr pp
0 0.0001
0 1e-06
-0.5 0.5
ITEM: CELLS c_particles[1] 
14 
13 
20 
18 
11 
17 
17 
18 
14 
19 
21 
22 
23 
23 
21 
18 
18 
17 
20 
15 
21 
21 
14 
18 
15 
16 
15 
21 
14 
17 
22 
24 
22 
11 
15 
18 
16 
27 
16 
23 
13 
16 
13 
16 
15 
14 
19 
9 
15 
16 
15 
16 
17 
17 
14 
11 
12 
15 
13 
5 
15 
14 
8 
16 
11 
11 
18 
14 
16 
12 
14 
20 
18 
15 
8 
15 
22 
18 
20 
15 
10 
14 
16 
20 
9 
18 
13 
20 
22 
14 
21 
17 
14 
15 
13 
9 
11 
9 
15 
14 
