ITEM: TIMESTEP
3090000
ITEM: NUMBER OF CELLS
100
ITEM: BOX BOUNDS ss rr pp
0 0.0001
0 1e-06
-0.5 0.5
ITEM: CELLS c_particles[1] 
17 
15 
26 
19 
16 
15 
18 
19 
14 
24 
14 
12 
18 
13 
20 
20 
19 
23 
15 
12 
13 
19 
16 
19 
16 
19 
13 
17 
20 
16 
14 
16 
19 
21 
20 
13 
22 
22 
13 
17 
18 
20 
13 
10 
19 
19 
13 
15 
17 
15 
18 
14 
14 
20 
9 
12 
23 
18 
21 
18 
14 
18 
14 
11 
12 
22 
14 
14 
18 
17 
11 
11 
18 
20 
15 
17 
18 
11 
18 
15 
24 
20 
13 
17 
12 
11 
10 
12 
14 
13 
14 
18 
15 
12 
9 
14 
11 
10 
10 
13 
