ITEM: TIMESTEP
7870000
ITEM: NUMBER OF CELLS
100
ITEM: BOX BOUNDS ss rr pp
0 0.0001
0 1e-06
-0.5 0.5
ITEM: CELLS c_particles[1] 
21 
9 
13 
19 
18 
15 
11 
13 
19 
18 
16 
18 
18 
14 
18 
22 
18 
15 
17 
12 
12 
20 
17 
18 
14 
22 
18 
9 
18 
16 
16 
20 
17 
17 
21 
16 
18 
7 
21 
11 
19 
19 
17 
11 
14 
13 
18 
9 
12 
15 
19 
21 
18 
16 
15 
13 
11 
18 
10 
13 
22 
29 
29 
10 
14 
13 
17 
20 
19 
14 
19 
16 
15 
16 
17 
15 
15 
14 
13 
14 
20 
15 
18 
20 
19 
14 
22 
19 
17 
18 
13 
10 
12 
10 
12 
15 
18 
13 
6 
15 
