ITEM: TIMESTEP
31400000
ITEM: NUMBER OF CELLS
100
ITEM: BOX BOUNDS ss rr pp
0 0.0001
0 1e-05
-0.5 0.5
ITEM: CELLS c_particles[1] 
17 
14 
16 
17 
11 
18 
22 
19 
16 
16 
20 
21 
21 
18 
15 
18 
17 
9 
17 
17 
20 
19 
11 
12 
9 
20 
13 
14 
12 
16 
17 
23 
14 
10 
15 
23 
12 
18 
12 
17 
25 
14 
21 
22 
18 
16 
19 
13 
10 
9 
12 
20 
11 
14 
14 
9 
13 
23 
14 
10 
14 
21 
22 
23 
14 
19 
21 
19 
14 
9 
12 
13 
13 
19 
16 
15 
24 
15 
13 
13 
14 
20 
20 
16 
9 
19 
12 
21 
17 
12 
17 
9 
16 
17 
13 
12 
19 
16 
16 
23 
