ITEM: TIMESTEP
7070000
ITEM: NUMBER OF CELLS
100
ITEM: BOX BOUNDS ss rr pp
0 0.0001
0 1e-06
-0.5 0.5
ITEM: CELLS c_particles[1] 
19 
18 
18 
20 
17 
18 
18 
13 
20 
22 
21 
13 
17 
17 
16 
16 
25 
13 
20 
19 
21 
21 
22 
16 
18 
16 
11 
15 
8 
9 
18 
14 
15 
18 
21 
16 
15 
22 
16 
15 
23 
18 
15 
21 
20 
14 
14 
16 
14 
11 
10 
13 
14 
15 
14 
18 
10 
18 
13 
13 
20 
16 
15 
12 
16 
14 
21 
15 
11 
14 
13 
14 
12 
15 
13 
18 
14 
28 
19 
13 
19 
8 
19 
19 
15 
18 
15 
18 
11 
13 
12 
18 
15 
14 
11 
17 
10 
15 
14 
15 
