ITEM: TIMESTEP
9700000
ITEM: NUMBER OF CELLS
100
ITEM: BOX BOUNDS ss rr pp
0 0.0001
0 1e-05
-0.5 0.5
ITEM: CELLS c_particles[1] 
14 
17 
16 
11 
17 
13 
19 
7 
11 
21 
11 
14 
18 
17 
19 
23 
16 
21 
28 
17 
19 
17 
16 
13 
18 
18 
15 
9 
18 
14 
13 
13 
10 
10 
19 
16 
18 
26 
21 
10 
19 
11 
21 
21 
14 
23 
17 
14 
13 
22 
23 
16 
9 
18 
21 
19 
11 
18 
13 
16 
18 
16 
17 
21 
13 
12 
16 
17 
10 
13 
18 
8 
20 
22 
16 
14 
16 
23 
15 
17 
16 
12 
17 
23 
19 
19 
9 
17 
24 
12 
12 
12 
16 
10 
10 
17 
11 
13 
14 
13 
