ITEM: TIMESTEP
2630000
ITEM: NUMBER OF CELLS
100
ITEM: BOX BOUNDS ss rr pp
0 0.0001
0 1e-06
-0.5 0.5
ITEM: CELLS c_particles[1] 
14 
17 
6 
17 
13 
12 
11 
16 
14 
17 
12 
15 
13 
26 
10 
22 
20 
25 
16 
21 
15 
14 
21 
16 
15 
21 
17 
17 
14 
22 
17 
21 
19 
14 
12 
13 
14 
20 
15 
18 
14 
10 
13 
18 
13 
25 
17 
21 
13 
21 
22 
17 
9 
9 
8 
14 
13 
18 
16 
20 
20 
16 
12 
20 
12 
18 
19 
15 
18 
19 
23 
14 
19 
10 
18 
14 
20 
14 
17 
12 
14 
14 
13 
18 
15 
16 
16 
6 
19 
18 
11 
16 
18 
13 
14 
18 
17 
18 
13 
20 
