ITEM: TIMESTEP
1700000
ITEM: NUMBER OF CELLS
100
ITEM: BOX BOUNDS ss rr pp
0 0.0001
0 1e-05
-0.5 0.5
ITEM: CELLS c_particles[1] 
21 
13 
20 
13 
13 
19 
12 
15 
22 
19 
20 
16 
16 
15 
12 
15 
20 
15 
18 
22 
15 
11 
19 
12 
19 
12 
14 
15 
22 
13 
12 
20 
16 
6 
17 
22 
7 
19 
11 
11 
22 
17 
16 
10 
15 
17 
18 
14 
16 
17 
14 
20 
17 
19 
20 
12 
10 
18 
25 
13 
15 
19 
14 
24 
15 
16 
12 
18 
17 
24 
14 
16 
15 
15 
19 
14 
16 
15 
12 
12 
13 
19 
18 
15 
20 
16 
10 
17 
10 
15 
14 
21 
15 
16 
16 
14 
21 
22 
14 
13 
