ITEM: TIMESTEP
3270000
ITEM: NUMBER OF CELLS
100
ITEM: BOX BOUNDS ss rr pp
0 0.0001
0 1e-06
-0.5 0.5
ITEM: CELLS c_particles[1] 
16 
20 
27 
25 
17 
19 
13 
15 
15 
15 
15 
18 
19 
18 
14 
11 
21 
24 
13 
17 
17 
24 
19 
23 
12 
18 
12 
12 
10 
15 
11 
14 
10 
22 
8 
16 
12 
20 
21 
9 
19 
15 
19 
15 
16 
9 
17 
7 
15 
16 
17 
9 
13 
16 
19 
14 
21 
14 
11 
15 
14 
16 
17 
13 
22 
22 
14 
19 
14 
13 
18 
14 
24 
11 
17 
11 
18 
23 
11 
20 
17 
16 
12 
18 
13 
11 
20 
19 
10 
15 
11 
10 
16 
23 
17 
17 
17 
17 
17 
19 
