ITEM: TIMESTEP
34300000
ITEM: NUMBER OF CELLS
100
ITEM: BOX BOUNDS ss rr pp
0 0.0001
0 1e-05
-0.5 0.5
ITEM: CELLS c_particles[1] 
15 
17 
16 
14 
17 
11 
15 
21 
9 
25 
11 
16 
16 
14 
14 
19 
20 
19 
20 
25 
18 
13 
15 
12 
17 
13 
13 
18 
20 
17 
11 
17 
13 
20 
13 
12 
18 
18 
17 
12 
15 
22 
15 
13 
17 
14 
22 
17 
10 
11 
13 
14 
19 
17 
15 
14 
14 
13 
16 
21 
15 
21 
22 
17 
14 
24 
21 
13 
19 
20 
10 
17 
21 
24 
19 
13 
18 
12 
14 
12 
22 
10 
11 
9 
19 
18 
10 
14 
13 
11 
12 
18 
12 
14 
19 
13 
18 
24 
16 
18 
