ITEM: TIMESTEP
3710000
ITEM: NUMBER OF CELLS
100
ITEM: BOX BOUNDS ss rr pp
0 0.0001
0 1e-06
-0.5 0.5
ITEM: CELLS c_particles[1] 
15 
21 
20 
22 
16 
19 
21 
11 
18 
16 
15 
21 
18 
14 
16 
18 
11 
13 
14 
12 
18 
19 
20 
15 
13 
16 
12 
22 
17 
8 
13 
19 
20 
14 
22 
24 
19 
17 
15 
20 
16 
21 
18 
11 
11 
22 
25 
15 
21 
13 
11 
16 
17 
13 
16 
16 
9 
15 
15 
15 
19 
12 
17 
18 
13 
16 
16 
13 
20 
13 
12 
21 
25 
20 
16 
21 
22 
11 
13 
18 
14 
10 
16 
17 
12 
16 
11 
8 
11 
16 
10 
15 
12 
16 
18 
17 
8 
20 
15 
12 
