ITEM: TIMESTEP
88000000
ITEM: NUMBER OF CELLS
100
ITEM: BOX BOUNDS ss rr pp
0 0.0001
0 1e-05
-0.5 0.5
ITEM: CELLS c_particles[1] 
20 
16 
14 
8 
16 
20 
11 
13 
21 
15 
12 
11 
15 
19 
16 
16 
23 
13 
13 
17 
24 
14 
19 
19 
13 
19 
18 
14 
12 
17 
20 
12 
10 
15 
15 
15 
16 
22 
11 
16 
17 
20 
18 
14 
18 
11 
13 
17 
17 
16 
12 
18 
19 
17 
18 
12 
16 
12 
14 
31 
17 
15 
24 
13 
13 
15 
14 
17 
16 
11 
17 
18 
24 
16 
21 
16 
17 
16 
16 
19 
15 
17 
17 
17 
24 
14 
14 
13 
17 
17 
10 
16 
13 
17 
10 
20 
10 
14 
19 
11 
