ITEM: TIMESTEP
1820000
ITEM: NUMBER OF CELLS
100
ITEM: BOX BOUNDS ss rr pp
0 0.0001
0 1e-06
-0.5 0.5
ITEM: CELLS c_particles[1] 
21 
23 
17 
24 
13 
19 
17 
15 
16 
19 
13 
16 
15 
19 
22 
20 
13 
17 
18 
14 
14 
20 
25 
16 
18 
13 
11 
21 
11 
18 
18 
14 
14 
21 
17 
20 
8 
17 
14 
10 
13 
20 
13 
17 
10 
13 
11 
16 
11 
20 
10 
14 
18 
12 
10 
14 
15 
12 
20 
19 
18 
13 
9 
17 
14 
28 
12 
18 
17 
17 
14 
13 
18 
20 
13 
19 
13 
21 
15 
21 
13 
16 
9 
13 
17 
20 
13 
16 
25 
21 
18 
16 
16 
15 
15 
16 
12 
16 
11 
13 
