ITEM: TIMESTEP
5920000
ITEM: NUMBER OF CELLS
100
ITEM: BOX BOUNDS ss rr pp
0 0.0001
0 1e-06
-0.5 0.5
ITEM: CELLS c_particles[1] 
22 
15 
17 
17 
20 
18 
12 
10 
21 
20 
17 
17 
15 
20 
21 
16 
14 
15 
11 
19 
28 
10 
12 
11 
17 
19 
19 
17 
19 
22 
23 
18 
17 
23 
12 
11 
23 
14 
24 
12 
16 
17 
18 
14 
16 
17 
11 
15 
20 
19 
19 
14 
14 
14 
21 
17 
15 
21 
17 
15 
14 
15 
13 
11 
20 
12 
14 
17 
14 
10 
15 
15 
18 
14 
13 
12 
25 
15 
10 
9 
14 
11 
13 
12 
11 
13 
14 
15 
12 
16 
16 
15 
12 
21 
15 
16 
22 
13 
19 
16 
