ITEM: TIMESTEP
5110000
ITEM: NUMBER OF CELLS
100
ITEM: BOX BOUNDS ss rr pp
0 0.0001
0 1e-06
-0.5 0.5
ITEM: CELLS f_temp1[*] 
353.503 
369.91 
358.722 
394.277 
326.304 
345.717 
371.126 
372.852 
325.007 
346.1 
364.26 
371.704 
375.948 
368.208 
416.864 
383.86 
342.85 
366.989 
368.377 
374.477 
410.281 
335.745 
384.648 
346.458 
384.455 
387.218 
356.722 
336.755 
399.402 
385.628 
425.744 
385.028 
382.331 
346.202 
335.903 
342.391 
364.74 
361.33 
410.801 
380.454 
355.501 
396.536 
400.472 
397.906 
374.35 
333.108 
376.614 
371.777 
398.877 
367.528 
394.647 
402.394 
374.794 
404.835 
385.856 
409.782 
421.288 
368.273 
403.585 
395.891 
417.39 
417.02 
408.686 
391.705 
396.325 
409.462 
374.203 
351.563 
438.999 
435.18 
421.098 
337.78 
350.297 
382.758 
433.832 
412.267 
417.068 
426.365 
458.032 
411.901 
415.148 
396.665 
358.406 
417.116 
393.959 
437.118 
430.819 
459.181 
461.227 
403.954 
375.183 
409.78 
435.663 
435.827 
409.548 
384.038 
416.707 
432.02 
400.083 
412.913 
