ITEM: TIMESTEP
91700000
ITEM: NUMBER OF CELLS
100
ITEM: BOX BOUNDS ss rr pp
0 0.0001
0 1e-05
-0.5 0.5
ITEM: CELLS f_temp1[*] 
375.808 
384.88 
370.766 
382.679 
376.635 
386.209 
396.304 
364.046 
400.483 
370.32 
388.241 
373.798 
381.809 
388.132 
373.954 
368.402 
376.322 
392.726 
373.307 
380.037 
391.323 
378.79 
381.915 
379.625 
379.953 
379.165 
383.013 
379.707 
394.557 
391.737 
392.456 
390.653 
376.314 
381.669 
389.537 
389.546 
393.913 
395.134 
380.249 
382.557 
379.563 
381.588 
393.116 
380.571 
386.62 
377.783 
381.579 
396.288 
393.847 
385.334 
393.731 
379.27 
391.388 
371.552 
390.842 
387.553 
376.412 
395.287 
381.09 
380.043 
392.807 
406.764 
399.933 
381.754 
374.793 
388.613 
383.42 
397.427 
389.083 
393.572 
397.093 
394.584 
381.536 
385.748 
387.739 
404.561 
387.31 
400.676 
391.498 
388.685 
396.906 
399.031 
384.835 
405.225 
380.54 
398.176 
386.696 
388.899 
407.781 
392.458 
393.568 
404.745 
406.372 
409.782 
382.119 
396.709 
408.855 
404.682 
391.13 
390.407 
