ITEM: TIMESTEP
3950000
ITEM: NUMBER OF CELLS
100
ITEM: BOX BOUNDS ss rr pp
0 0.0001
0 1e-06
-0.5 0.5
ITEM: CELLS f_temp1[*] 
330.071 
361.791 
394.233 
359.934 
362.942 
339.067 
359.401 
326.603 
390.588 
291.719 
377.506 
356.802 
370.394 
398.739 
383.211 
373.046 
404.033 
350.927 
384.115 
432.821 
346.458 
362.774 
381.786 
335.013 
406.586 
346.516 
390.785 
365.988 
384.639 
408.318 
351.581 
352.358 
409.356 
376.804 
361.937 
420.499 
409.076 
360.013 
346.18 
374.568 
346.041 
368.675 
361.677 
369.589 
364.381 
368.155 
400.876 
408.247 
382.45 
415.362 
381.432 
430.612 
404.74 
399.822 
410.158 
369.587 
415.215 
348.609 
378.546 
323.762 
413.325 
399.761 
415.709 
404.832 
419.49 
407.021 
329.742 
397.742 
432.662 
406.269 
400.685 
381.024 
455.457 
461.459 
445.608 
382.654 
375.357 
406.623 
434.496 
414.793 
398.993 
415.13 
416.004 
380.005 
402.443 
445.359 
437.622 
368.374 
446.948 
399.822 
400.517 
386.311 
434.087 
491.328 
475.327 
411.076 
382.492 
466.47 
395.292 
427.922 
