ITEM: TIMESTEP
7650000
ITEM: NUMBER OF CELLS
100
ITEM: BOX BOUNDS ss rr pp
0 0.0001
0 1e-06
-0.5 0.5
ITEM: CELLS f_temp1[*] 
417.126 
346.049 
348.467 
369.997 
341.566 
325.856 
377.968 
374.681 
338.903 
401.2 
379.822 
349.645 
331.171 
381.659 
362.403 
332.293 
342.249 
343.09 
358.481 
365.173 
382.546 
381.292 
348.207 
381.107 
374.166 
428.759 
390.16 
363.856 
329.234 
385.054 
351.824 
324.716 
372.384 
391.682 
357.912 
363.463 
387.244 
335.542 
415.162 
417.818 
396.308 
406.803 
427.738 
394.098 
400.161 
378.767 
412.705 
409.745 
408.532 
373.367 
432.506 
357.209 
329.848 
397.83 
366.409 
359.421 
414.618 
446.242 
411.437 
385.283 
419.052 
394.477 
435.308 
416.742 
409.641 
378.347 
401.297 
433.188 
403.195 
415.876 
378.868 
418.227 
423.095 
396.673 
425.219 
421.344 
428.608 
425.183 
423.926 
434.837 
424.437 
380.437 
392.067 
398.772 
407.753 
455.927 
404.204 
359.906 
403.107 
412.537 
403.059 
474.206 
399.693 
421.802 
500.752 
402.237 
434.328 
404.493 
375.371 
388.59 
