ITEM: TIMESTEP
83800000
ITEM: NUMBER OF CELLS
100
ITEM: BOX BOUNDS ss rr pp
0 0.0001
0 1e-05
-0.5 0.5
ITEM: CELLS f_temp1[*] 
364.902 
382.762 
390.981 
370.262 
368.464 
372.499 
392.413 
367.776 
378.643 
372.264 
370.819 
381.073 
384.431 
378.206 
364.576 
377.399 
368.351 
381.61 
378.379 
375.597 
383.024 
374.509 
380.376 
381.717 
381.345 
385.978 
387.996 
387.488 
376.598 
381.656 
374.279 
385.289 
389.555 
389.061 
403.894 
387.237 
387.251 
389.544 
386.404 
383.543 
380.316 
385.353 
381.304 
386.136 
378.823 
370.552 
393.24 
390.851 
387.132 
385.739 
383.445 
388.918 
375.404 
385.304 
388.127 
391.629 
400.084 
378.428 
377.375 
389.708 
398.053 
378.145 
387.981 
393.912 
404.749 
381.965 
404.103 
392.099 
399.076 
381.091 
403.275 
384.211 
374.377 
397.358 
395.145 
385.698 
399.593 
393.827 
401.524 
392.703 
388.52 
403.744 
405.767 
397.936 
393.407 
391.894 
382.179 
391.979 
392.936 
393.921 
393.442 
404.2 
406.057 
401.209 
391.92 
402.265 
384.156 
394.239 
416.469 
395.308 
