ITEM: TIMESTEP
22700000
ITEM: NUMBER OF CELLS
100
ITEM: BOX BOUNDS ss rr pp
0 0.0001
0 1e-05
-0.5 0.5
ITEM: CELLS f_temp1[*] 
367.417 
379.2 
392.248 
373.928 
376.592 
374.09 
378.807 
375.464 
395.557 
391.328 
377.593 
363.984 
371.307 
395.335 
375.557 
384.872 
386.966 
371.121 
371.839 
393.811 
391.573 
387.514 
401.923 
377.319 
394.365 
383.592 
392.923 
367.928 
395.889 
380.283 
388.267 
396.465 
383.755 
386.003 
386.859 
382.569 
394.359 
373.413 
384.386 
401.884 
394.738 
379.412 
380.355 
391.208 
390.971 
388.491 
380.023 
392.224 
376.686 
379.748 
377.781 
379.476 
389.118 
395.402 
380.55 
390.563 
382.589 
389.201 
398.017 
391.444 
384.822 
380.397 
400.486 
401.285 
384.526 
394.825 
392.789 
407.217 
383.612 
405.597 
407.102 
399.899 
398.727 
392.788 
404.499 
398.528 
412.305 
393.409 
395.979 
396.418 
406.932 
393.92 
396.44 
412.469 
392.979 
390.645 
388.178 
393.029 
389.479 
397.036 
421.744 
393.701 
391.526 
423.089 
420.869 
406.511 
409.939 
401.616 
395.192 
387.564 
