ITEM: TIMESTEP
10900000
ITEM: NUMBER OF CELLS
100
ITEM: BOX BOUNDS ss rr pp
0 0.0001
0 1e-05
-0.5 0.5
ITEM: CELLS f_temp1[*] 
381.152 
395.838 
369.063 
384.767 
375.031 
380.054 
383.04 
390.558 
377.719 
387.053 
379.618 
389.58 
390.24 
387.322 
388.336 
372.306 
389.313 
389.848 
383.865 
384.209 
370.418 
371.028 
395.804 
390.188 
372.853 
390.901 
389.177 
387.63 
373.314 
375.805 
373.166 
390.782 
372.478 
381.884 
381.394 
378.856 
386.452 
387.477 
389.218 
386.547 
386.299 
375.467 
388.592 
375.624 
377.244 
394.601 
394.551 
374.796 
389.629 
392.872 
382.074 
376.508 
384.681 
399.418 
381.372 
386.369 
385.601 
393.023 
399.768 
378.393 
370.257 
386.799 
391.892 
388.038 
398.703 
386.731 
388.551 
400.203 
397.153 
384.228 
381.96 
375.342 
404.267 
386.707 
402.067 
391.657 
397.237 
390.15 
385.192 
385.184 
381.901 
381.243 
385.557 
408.146 
399.914 
392.065 
394.964 
398.297 
395.565 
392.123 
401.592 
385.683 
386.006 
397.301 
391.4 
397.598 
414.389 
414.234 
412.244 
404.113 
