ITEM: TIMESTEP
96000000
ITEM: NUMBER OF CELLS
100
ITEM: BOX BOUNDS ss rr pp
0 0.0001
0 1e-05
-0.5 0.5
ITEM: CELLS f_temp1[*] 
369.632 
381.877 
369.033 
376.732 
379.123 
373.438 
383.06 
379.007 
383.543 
385.052 
381.163 
370.943 
370.873 
386.693 
392.486 
396.211 
386.233 
384.337 
383.001 
371.626 
369.299 
368.01 
379.539 
389.529 
372.863 
374.678 
370.54 
394.344 
383.07 
378.521 
391.888 
376.07 
366.852 
388.627 
378.108 
382.518 
380.433 
394.122 
392.541 
387.349 
379.858 
389.096 
383.533 
381.151 
382.585 
392.36 
382.082 
378.005 
386.541 
389.898 
392.63 
383.024 
404.965 
382.181 
400.143 
389.857 
388.481 
385.916 
395.158 
391.547 
384.705 
395.97 
398.45 
390.436 
372.114 
383.186 
404.872 
389.321 
392.867 
396.416 
394.198 
391.285 
400.693 
386.093 
393.91 
398.858 
393.922 
370.446 
408.247 
390.502 
384.38 
405.148 
399.539 
399.638 
386.732 
406.993 
406.85 
395.622 
399.914 
404.799 
394.34 
379.496 
417.754 
399.683 
394.823 
392.974 
408.317 
391.979 
409.635 
398.198 
