ITEM: TIMESTEP
71000000
ITEM: NUMBER OF CELLS
100
ITEM: BOX BOUNDS ss rr pp
0 0.0001
0 1e-05
-0.5 0.5
ITEM: CELLS f_temp1[*] 
366.075 
375.415 
391.864 
370.279 
376.37 
380.624 
385.009 
374.586 
377.413 
373.003 
377.027 
370.074 
378.116 
378.564 
377.811 
374.348 
368.752 
378.006 
374.994 
375.773 
380.151 
398.434 
372.09 
382.258 
383.079 
376.167 
381.092 
389.492 
370.578 
396.003 
384.959 
401.116 
377.899 
386.09 
351.28 
379.101 
390.3 
368.996 
379.466 
387.572 
382.373 
387.775 
390.614 
395.974 
388.666 
382.34 
385.219 
406.007 
385.018 
384.977 
408.625 
385.553 
394.024 
394.603 
387.578 
376.255 
392.411 
392.995 
379.143 
386.853 
401.709 
379.479 
391.92 
394.331 
397.374 
367.633 
387.577 
387.432 
393.564 
389.886 
406.496 
395.804 
392.622 
406.633 
386.463 
390.82 
392.607 
393.607 
388.831 
411.16 
405.553 
387.335 
405.015 
410.158 
387.081 
385.177 
393.822 
399.993 
413.978 
398.05 
393.326 
400.652 
404.781 
402.093 
403.649 
391.512 
414.028 
391.466 
397.454 
406.245 
