ITEM: TIMESTEP
40900000
ITEM: NUMBER OF CELLS
100
ITEM: BOX BOUNDS ss rr pp
0 0.0001
0 1e-05
-0.5 0.5
ITEM: CELLS f_temp1[*] 
378.598 
366.381 
375.37 
375.244 
383.735 
371.527 
380.025 
390.492 
381.406 
395.206 
375.137 
370.07 
386.659 
391.847 
372.947 
374.593 
379.699 
369.095 
363.72 
374.353 
385.939 
384.721 
391.559 
391.835 
360.401 
376.418 
387.249 
382.356 
377.034 
388.216 
382.745 
379.736 
380.738 
392.14 
375.333 
362.951 
400.699 
391.688 
386.447 
364.209 
391.754 
382.761 
392.819 
385.692 
392.625 
381.02 
391.762 
401.204 
375.442 
388.424 
381.757 
379.124 
383.9 
402.588 
372.386 
384.014 
407.641 
387.115 
397.584 
387.755 
368.217 
394.714 
353.936 
374.803 
381.721 
384.442 
385.446 
394.954 
391.46 
379.507 
405.696 
397.841 
358.612 
400.36 
389.008 
414.184 
403.97 
382.7 
385.403 
386.692 
391.514 
379.331 
376.462 
382.72 
413.502 
378.656 
417.097 
392.145 
402.042 
403.671 
385.748 
386.982 
402.436 
402.616 
399.222 
402.974 
410.307 
398.414 
393.382 
387.78 
