ITEM: TIMESTEP
14400000
ITEM: NUMBER OF CELLS
100
ITEM: BOX BOUNDS ss rr pp
0 0.0001
0 1e-05
-0.5 0.5
ITEM: CELLS f_temp1[*] 
377.854 
383.944 
379.106 
389.866 
370.364 
388.915 
377.466 
362.362 
366.663 
380.185 
382.247 
377.442 
381.363 
397.555 
388.776 
387.888 
376.382 
385.799 
381.298 
396.456 
395.835 
377.699 
371.323 
387.391 
382.003 
374.951 
369.413 
373.408 
386.851 
382.651 
391.168 
375.889 
386.358 
388.846 
380.6 
382.942 
384.885 
402.49 
396.581 
394.221 
400.17 
376.427 
386.23 
387.044 
387.876 
386.859 
378.353 
392.51 
392.725 
383.965 
397.885 
398.217 
380.551 
389.535 
377.931 
389.301 
382.254 
403.321 
389.662 
389.94 
388.186 
390.223 
390.43 
385.121 
390.424 
388.423 
385.602 
392.954 
377.521 
406.562 
404.112 
393.518 
403.362 
394.18 
403.172 
385.841 
390.011 
404.582 
383.387 
398.281 
401.361 
384.109 
381.322 
388.511 
394.944 
396.588 
414.326 
391.23 
416.311 
416.44 
408.822 
397.737 
387.892 
383.393 
404.446 
388.613 
397.679 
409.62 
390.317 
389.707 
