ITEM: TIMESTEP
84300000
ITEM: NUMBER OF CELLS
100
ITEM: BOX BOUNDS ss rr pp
0 0.0001
0 1e-05
-0.5 0.5
ITEM: CELLS f_temp1[*] 
362.303 
365.785 
375.661 
380.949 
363.568 
383.577 
395.457 
366.773 
389.499 
373.321 
374.892 
386.976 
377.347 
371.23 
370.789 
378.564 
378.51 
399.095 
381.693 
369.272 
390.95 
381.392 
381.139 
379.704 
384.276 
378.488 
373.064 
385.493 
366.795 
391.977 
384.293 
380.04 
382.252 
386.13 
371.158 
377.034 
381.225 
388.961 
388.691 
384.954 
399.598 
401.394 
397.128 
395.547 
387.364 
380.651 
394.471 
396.756 
392.644 
390.159 
372.576 
390.077 
384.961 
391.737 
390.713 
398.406 
397.156 
376.087 
387.601 
392.381 
402.354 
400.86 
385.222 
391.797 
401.063 
408.379 
382.432 
379.874 
392.141 
401.367 
383.83 
403.837 
376.32 
406.135 
392.113 
405.172 
395.466 
384.103 
393.812 
391.765 
389.612 
391.777 
378.219 
391.271 
406.023 
398.98 
387.116 
379.926 
386.057 
392.118 
402.974 
389.14 
397.415 
400.308 
397.079 
410.06 
391.704 
395.61 
391.332 
406.451 
