ITEM: TIMESTEP
60800000
ITEM: NUMBER OF CELLS
100
ITEM: BOX BOUNDS ss rr pp
0 0.0001
0 1e-05
-0.5 0.5
ITEM: CELLS f_temp1[*] 
355.323 
375.348 
370.898 
383.78 
380.711 
384.238 
372.823 
353.865 
383.491 
377.236 
365.732 
379.787 
386.399 
373.756 
368.092 
383.302 
377.31 
373.876 
376.206 
384.719 
394.637 
379.327 
361.804 
394.056 
379.035 
392.292 
370.027 
377.949 
391.683 
394.155 
376.073 
390.261 
382.823 
393.06 
391.428 
396.558 
377.112 
382.035 
379.42 
377.036 
377.243 
395.301 
383.278 
382.668 
388.806 
393.176 
366.185 
385.618 
387.104 
381.508 
390.633 
385.426 
373.105 
374.641 
397.158 
385.139 
393.874 
381.753 
397.449 
401.671 
387.928 
398.329 
390.965 
400.635 
398.657 
393.635 
392.819 
397.537 
391.974 
398.568 
407.119 
379.247 
386.418 
396.015 
386.92 
394.833 
389.582 
392.376 
393.385 
378.376 
386.805 
379.282 
397.04 
377.547 
382.698 
389.881 
385.316 
395.639 
398.377 
399.275 
383.62 
403.323 
394.346 
405.336 
403.936 
403.262 
394.478 
400.147 
402.023 
397.019 
