ITEM: TIMESTEP
9210000
ITEM: NUMBER OF CELLS
100
ITEM: BOX BOUNDS ss rr pp
0 0.0001
0 1e-06
-0.5 0.5
ITEM: CELLS f_temp1[*] 
360.019 
334.666 
353.323 
333.309 
399.262 
347.215 
384.261 
359.212 
368.252 
365.638 
383.463 
379.044 
431.553 
351.213 
327.199 
343.211 
362.365 
362.221 
337.172 
379.171 
380.496 
390.628 
391.361 
339.976 
432.998 
393.299 
368.843 
383.553 
388.897 
350.253 
397.549 
338.716 
382.868 
380.825 
360.168 
413.813 
391.616 
393.913 
353.483 
367.509 
404.542 
375.884 
407.315 
385.553 
421.04 
388.267 
360.072 
401.495 
363.14 
347.84 
424.208 
388.08 
356.253 
412.959 
441.058 
385.853 
402.785 
360.812 
417.164 
380.39 
393.247 
375.529 
401.585 
398.056 
407.594 
394.036 
399.113 
383.55 
443.598 
385.367 
427.923 
413.677 
404.119 
361.445 
385.769 
449.288 
386.672 
361.144 
437.813 
366.247 
443.45 
426.948 
353.996 
453.086 
397.139 
366.95 
377.786 
365.911 
451.622 
407.592 
398.969 
391.827 
418.748 
467.308 
460.641 
448.882 
409.633 
418.943 
388.094 
418.213 
