ITEM: TIMESTEP
2590000
ITEM: NUMBER OF CELLS
100
ITEM: BOX BOUNDS ss rr pp
0 0.0001
0 1e-06
-0.5 0.5
ITEM: CELLS f_temp1[*] 
347.87 
353.374 
398.038 
381.607 
344.483 
341.873 
328.217 
352.528 
370.87 
354.706 
402.944 
365.8 
376.264 
390.756 
386.525 
358.35 
335.599 
335.092 
341.05 
398.166 
387.571 
357.407 
339.929 
380.53 
399.823 
394.045 
338.643 
351.328 
390.746 
386.514 
448.676 
368.904 
386.436 
392.836 
326.079 
362.13 
395.058 
328.411 
314.851 
376.836 
370.503 
391.064 
367.044 
353.738 
384.876 
360.541 
371.409 
421.977 
391.439 
421.368 
383.104 
328.357 
400.181 
411.365 
376.304 
381.102 
404.633 
383.416 
362.008 
408.867 
377.471 
377.428 
470.723 
388.215 
417.496 
404.474 
424.128 
373.535 
407.463 
451.979 
381.138 
456.248 
405.222 
396.475 
383.765 
385.106 
472.06 
368.338 
422.67 
351.276 
473.211 
401.215 
376.563 
415.748 
507.144 
480.294 
425.907 
419.191 
450.447 
415.722 
398.622 
400.262 
462.182 
452.636 
417.283 
452.553 
398.975 
435.94 
446.836 
411.24 
