ITEM: TIMESTEP
84600000
ITEM: NUMBER OF CELLS
100
ITEM: BOX BOUNDS ss rr pp
0 0.0001
0 1e-05
-0.5 0.5
ITEM: CELLS f_temp1[*] 
370.32 
372.54 
387.935 
383.208 
383.145 
360.226 
376.237 
388.092 
380.324 
377.657 
378.639 
375.79 
380.893 
379.249 
394.99 
382.95 
375.659 
379.046 
375.818 
378.192 
381.456 
385.504 
385.383 
375.802 
386.657 
378.89 
395.596 
371.594 
374.175 
385.553 
381.907 
397.038 
386.289 
380.999 
382.26 
393.34 
408.87 
392.983 
381.189 
382.69 
374.085 
402.903 
381.618 
403.936 
387.972 
385.441 
402.577 
383.718 
384.763 
383.946 
386.624 
389.004 
395.853 
374.726 
399.047 
388.69 
400.251 
386.528 
403.462 
369.629 
380.006 
381.733 
399.043 
383.377 
385.117 
392.228 
391.673 
386.754 
383.216 
383.832 
382.923 
394.859 
405.236 
395.252 
403.61 
396.748 
380.963 
390.161 
400.136 
390.878 
375.683 
389.392 
398.405 
397.909 
405.803 
380.622 
387.744 
395.681 
394.402 
398.313 
400.425 
396.337 
401.661 
388.543 
407.776 
391.497 
400.374 
378.705 
404.805 
401.18 
