ITEM: TIMESTEP
3220000
ITEM: NUMBER OF CELLS
100
ITEM: BOX BOUNDS ss rr pp
0 0.0001
0 1e-06
-0.5 0.5
ITEM: CELLS f_temp1[*] 
331.535 
380.928 
326.734 
339.963 
326.405 
362.022 
363.428 
374.799 
342.249 
382.346 
408.791 
365.64 
342.998 
390.332 
398.332 
373.216 
401.555 
357.141 
399.855 
370.498 
340.407 
388.894 
354.812 
342.014 
376.696 
378.407 
403.959 
347.678 
377.093 
336.381 
344.105 
375.552 
354.125 
365.184 
413.434 
349.601 
340.897 
362.9 
383.024 
377.426 
400.09 
361.829 
395.303 
388.13 
399.309 
333.592 
327.019 
378.277 
391.482 
390.606 
405.517 
361.603 
372.111 
392.876 
438.266 
394.789 
430.013 
389.75 
399.459 
363.785 
387.686 
374.599 
392.419 
370.262 
392.898 
410.63 
443.496 
389.511 
415.786 
436.706 
391.886 
346.12 
379.784 
400.311 
450.639 
410.418 
395.447 
459.788 
393.172 
410.684 
411.359 
411.082 
407.98 
416.005 
411.204 
432.742 
424.496 
437.267 
422.482 
414.146 
435.979 
407.472 
444.728 
397.901 
434.866 
432.111 
420.118 
420.789 
416.523 
416.851 
