ITEM: TIMESTEP
5730000
ITEM: NUMBER OF CELLS
100
ITEM: BOX BOUNDS ss rr pp
0 0.0001
0 1e-06
-0.5 0.5
ITEM: CELLS f_temp1[*] 
339.627 
385.219 
359.325 
342.986 
415.043 
348.331 
316.269 
398.761 
389.03 
376.065 
387.832 
390.992 
337.197 
398.464 
376.067 
326.427 
359.006 
392.997 
355.574 
340.535 
358.515 
382.722 
376.527 
389.847 
378.369 
328.252 
415.301 
356.236 
365.766 
400.035 
365.064 
417.366 
368.004 
424.41 
396.509 
383.123 
348.18 
401.363 
441.302 
359.996 
393.287 
385.57 
418.234 
428.234 
367.958 
365.223 
419.881 
411.969 
396.531 
358.262 
435.853 
435.075 
388.241 
426.724 
374.073 
391.189 
428.276 
385.465 
416.62 
407.37 
389.658 
375.274 
441.046 
399.033 
424.86 
377.487 
410.637 
400.736 
384.109 
407.334 
403.57 
378.13 
384.439 
394.913 
387.369 
393.134 
454.949 
382.72 
388.667 
442.35 
416.207 
405.067 
434.063 
361.62 
461.502 
390.577 
406.589 
404.831 
397.916 
401.799 
447.166 
389.639 
392.545 
423.61 
400.488 
419.377 
428.922 
379.15 
412.032 
439.72 
