ITEM: TIMESTEP
95300000
ITEM: NUMBER OF CELLS
100
ITEM: BOX BOUNDS ss rr pp
0 0.0001
0 1e-05
-0.5 0.5
ITEM: CELLS f_temp1[*] 
378.482 
377.246 
379.101 
374.636 
378.52 
382.016 
376.917 
370.512 
375.537 
382.846 
392.938 
385.593 
374.225 
379.296 
374.946 
377.618 
379.98 
375.472 
375.027 
388.156 
377.421 
378.003 
386.971 
379.045 
378.087 
374.798 
382.588 
385.992 
387.423 
387.399 
396.764 
374.481 
373.295 
386.434 
370.968 
371.186 
393.019 
370.387 
404.317 
383.568 
386.609 
380.95 
394.873 
392.772 
400.274 
386.513 
382.609 
386.467 
396.232 
387.376 
381.567 
382.006 
380.778 
403.203 
384.26 
396.765 
382.514 
390.354 
389.006 
391.376 
398.679 
403.738 
408.204 
385.576 
383.095 
386.29 
413.91 
381.987 
380.79 
376.648 
409.927 
386.002 
387.588 
385.364 
393.865 
396.218 
382.385 
386.01 
390.249 
404.376 
396.381 
388.535 
403.641 
388.688 
412.551 
404.408 
403.66 
395.829 
411.048 
380.734 
388.484 
402.329 
403.714 
399.464 
401.788 
413.942 
393.765 
390.632 
390.445 
410.897 
