ITEM: TIMESTEP
2070000
ITEM: NUMBER OF CELLS
100
ITEM: BOX BOUNDS ss rr pp
0 0.0001
0 1e-06
-0.5 0.5
ITEM: CELLS f_temp1[*] 
351.436 
371.912 
357.598 
333.476 
347.631 
330.808 
371.378 
380.003 
402.277 
360.158 
368.103 
348.23 
352.085 
393.672 
362.022 
419.88 
366.323 
342.42 
361.239 
398.049 
359.927 
364.173 
376.843 
345.331 
376.274 
423.468 
348.776 
368.393 
433.075 
386.505 
353.457 
388.846 
380.74 
356.628 
413.319 
390.647 
385.94 
364.355 
383.784 
385.408 
357.886 
376.658 
412.63 
425.315 
370.527 
427.509 
333.311 
422.822 
396.512 
414.555 
417.678 
369.485 
378.672 
401.962 
404.298 
451.706 
396.44 
417.208 
378.814 
371.905 
365.334 
423.744 
357.626 
454.968 
407.628 
400.32 
373.091 
362.698 
334.047 
374.246 
413.12 
380.73 
426.322 
398.067 
363.505 
424.378 
368.27 
387.18 
373.471 
393.532 
400.407 
420.989 
388.043 
456.229 
431.862 
429.908 
476.823 
429.843 
511.337 
451.807 
419.68 
431.028 
439.092 
436.003 
463.725 
428.137 
431.279 
424.744 
418.586 
434.752 
