ITEM: TIMESTEP
5840000
ITEM: NUMBER OF CELLS
100
ITEM: BOX BOUNDS ss rr pp
0 0.0001
0 1e-06
-0.5 0.5
ITEM: CELLS f_temp1[*] 
357.817 
388.866 
367.074 
369.734 
345.294 
379.804 
407.967 
370.542 
363.475 
380.271 
392.531 
340.83 
359.204 
351.109 
373.231 
376.821 
366.516 
358.623 
381.676 
361.744 
345.842 
417.473 
363.718 
377.182 
383.701 
343.763 
356.054 
388.775 
351.176 
370.374 
401.338 
420.04 
372.627 
362.333 
379.902 
351.691 
364.924 
399.438 
355.002 
353.854 
401.336 
374.435 
402.72 
362.248 
375.942 
384.378 
410.046 
405.198 
388.274 
373.179 
386.959 
384.154 
344.849 
381.141 
376.248 
332.675 
354.09 
406.108 
392.465 
394.034 
429.006 
419.982 
399.35 
411.51 
388.803 
370.573 
382.755 
452.285 
340.312 
402.341 
373.43 
416.283 
365.667 
381.76 
356.489 
412.348 
360.643 
357.888 
390.283 
380.096 
438.921 
394.598 
450.49 
409.779 
421.423 
417.852 
391.548 
349.217 
445.845 
429.898 
421.643 
417.079 
422.191 
439.319 
431.537 
434.257 
446.259 
431.877 
405.407 
424.467 
