ITEM: TIMESTEP
72600000
ITEM: NUMBER OF CELLS
100
ITEM: BOX BOUNDS ss rr pp
0 0.0001
0 1e-05
-0.5 0.5
ITEM: CELLS f_temp1[*] 
371.47 
380.865 
374.123 
378.19 
388.653 
387.186 
389.864 
366.339 
362.099 
374.633 
378.61 
378.935 
368.048 
386.302 
369.736 
373.394 
372.293 
403.645 
380.668 
386.36 
380.628 
367.451 
391.726 
376.638 
375.263 
382.569 
381.118 
380.264 
393.443 
385.585 
382.055 
378.671 
384.901 
386.946 
394.865 
385.218 
398.575 
402.175 
373.99 
376.978 
389.641 
386.457 
378.885 
395.784 
386.98 
386.106 
382.011 
394.817 
376.921 
381.7 
388.558 
388.732 
382.603 
396.171 
386.916 
406.98 
396.979 
368.762 
379.022 
409.833 
393.793 
383.458 
384.113 
404.916 
408.399 
397.434 
389.003 
391.221 
388.313 
400.957 
400.216 
400.387 
400.227 
394.567 
390.008 
404.195 
395.722 
396.171 
413.866 
380.636 
387.605 
397.535 
401.148 
399.978 
398.504 
392.959 
391.029 
404.903 
401.751 
404.27 
404.368 
414.685 
403.246 
397.24 
392.22 
392.277 
394.588 
395.387 
407.074 
395.84 
