ITEM: TIMESTEP
53200000
ITEM: NUMBER OF CELLS
100
ITEM: BOX BOUNDS ss rr pp
0 0.0001
0 1e-05
-0.5 0.5
ITEM: CELLS f_temp1[*] 
394.953 
370.655 
387.547 
381.302 
393.271 
373.383 
378.317 
371.402 
382.214 
387.935 
382.282 
384.668 
382.07 
384.273 
388.839 
386.605 
377.671 
396.553 
372.592 
372.502 
385.151 
368.204 
368.985 
373.12 
379.065 
382.102 
382.515 
372.904 
390.625 
381.951 
382.15 
395.865 
406.921 
379.813 
398.481 
381.899 
393.927 
382.538 
380.314 
386.649 
367.209 
376.846 
380.159 
400.916 
401.806 
394.992 
399.012 
372.483 
383.486 
379.894 
393.402 
378.646 
395.248 
383.956 
386.448 
387.274 
386.834 
386.475 
400.647 
408.775 
380.641 
395.593 
404.958 
395.725 
389.894 
390.224 
384.545 
376.846 
406.415 
373.496 
396.938 
386.741 
382.765 
378.728 
380.102 
393.34 
393.396 
389.305 
395.645 
396.358 
401.521 
390.067 
395.34 
402.908 
398.431 
391.343 
413.285 
402.244 
390.716 
383.523 
394.474 
404.686 
396.772 
412.145 
398.672 
412.445 
390.255 
398.878 
395.975 
390.884 
