ITEM: TIMESTEP
86200000
ITEM: NUMBER OF CELLS
100
ITEM: BOX BOUNDS ss rr pp
0 0.0001
0 1e-05
-0.5 0.5
ITEM: CELLS f_temp1[*] 
379.239 
374.65 
363.26 
388.299 
374.418 
367.006 
386.167 
372.732 
378.087 
380.947 
379.824 
371.166 
373.771 
371.693 
380.563 
384.435 
382.42 
380.039 
381.104 
380.583 
370.888 
363.685 
377.214 
399.723 
383.61 
389.85 
377.148 
373.201 
386.679 
383.18 
391.237 
374.795 
388.798 
383.97 
385.814 
383.523 
381.262 
383.448 
389.945 
388.001 
387.849 
373.641 
383.218 
375.224 
385.651 
384.415 
372.577 
388.049 
387.84 
399.959 
393.519 
388.134 
383.257 
392.433 
404.938 
402.095 
387.023 
387.198 
371.111 
404.228 
387.329 
389.692 
399.416 
396.444 
400.321 
403.67 
399.175 
392.745 
388.08 
389.831 
391.559 
393.61 
402.027 
395.018 
395.839 
401.314 
402.272 
384.531 
393.556 
390.126 
405.078 
402.382 
399.301 
404.842 
405.531 
405.39 
410.799 
390.275 
388.072 
394.26 
397.928 
389.95 
377.834 
391.637 
401.022 
399.222 
396.844 
400.342 
398.423 
397.177 
