ITEM: TIMESTEP
71900000
ITEM: NUMBER OF CELLS
100
ITEM: BOX BOUNDS ss rr pp
0 0.0001
0 1e-05
-0.5 0.5
ITEM: CELLS f_temp1[*] 
393.482 
361.694 
363.606 
375.988 
385.012 
364.41 
377.854 
378.735 
380.527 
389.863 
389.071 
367.836 
372.845 
377.263 
381.528 
375.611 
372.977 
381.042 
373.086 
390.647 
395.38 
374.375 
385.363 
401.026 
383.862 
378.667 
382.992 
376.176 
372.246 
381.113 
371.861 
391.079 
382.393 
383.685 
395.128 
387.099 
385.658 
386.417 
378.714 
388.519 
382.199 
380.613 
385.327 
383.333 
378.137 
392.955 
381.629 
397.503 
376.393 
379.113 
390.188 
375.403 
388.914 
383.194 
393.078 
377.079 
393.421 
395.115 
385.301 
373.02 
384.909 
381.678 
397.437 
403.707 
403.232 
392.867 
389.239 
395.308 
387.501 
385.113 
390.647 
390.539 
395.07 
384.349 
397.351 
393.532 
399.218 
384.862 
397.3 
382.132 
387.113 
395.862 
406.284 
377.897 
398.073 
395.944 
380.418 
394.319 
403.162 
397.957 
387.822 
395.072 
396.787 
387.571 
409.758 
394.865 
384.728 
395.382 
401.552 
391.225 
