ITEM: TIMESTEP
90400000
ITEM: NUMBER OF CELLS
100
ITEM: BOX BOUNDS ss rr pp
0 0.0001
0 1e-05
-0.5 0.5
ITEM: CELLS f_temp1[*] 
375.17 
365.245 
375.197 
368.807 
375.98 
364.8 
375.478 
381.165 
375.176 
378.171 
375.371 
374.592 
382.849 
391.017 
373.052 
380.9 
374.632 
389.511 
385.009 
368.462 
382.313 
384.673 
381.247 
372.953 
391.062 
388.417 
374.946 
376.886 
375.073 
393.906 
397.115 
393.743 
382.122 
397.895 
393.942 
384.818 
385.237 
392.862 
393.787 
387.502 
394.125 
388.555 
377.341 
387.683 
378.887 
400.606 
390.418 
376.575 
378.612 
391.94 
385.611 
392.235 
398.511 
381.842 
375.237 
371.147 
389.856 
395.164 
394.213 
378.57 
401.094 
383.93 
386.919 
398.123 
388.853 
383.953 
394.263 
383.263 
390.568 
395.178 
403.095 
371.802 
386.663 
398.425 
382.409 
399.844 
389.711 
381.749 
418.935 
399.208 
408.181 
391.641 
389.895 
399.116 
385.697 
394.851 
401.335 
406.085 
397.912 
413.298 
395.249 
390.775 
387.403 
383.323 
416.212 
399.572 
393.053 
375.437 
398.381 
397.443 
