ITEM: TIMESTEP
45600000
ITEM: NUMBER OF CELLS
100
ITEM: BOX BOUNDS ss rr pp
0 0.0001
0 1e-05
-0.5 0.5
ITEM: CELLS f_temp1[*] 
375.013 
378.49 
382.294 
378.511 
371.293 
370.883 
378.077 
385.369 
383.743 
372.881 
368.364 
380.402 
382.133 
367.603 
377.085 
382.172 
376.147 
364.998 
374.578 
387.912 
379.498 
375.698 
393.492 
382.155 
384.679 
377.642 
375.987 
391.839 
371.777 
379.737 
374.736 
375.116 
382.675 
389.545 
378.775 
382.001 
393.996 
387.956 
386.136 
389.262 
392.611 
378.911 
394.534 
387.628 
378.097 
388.071 
384.631 
394.596 
373.165 
388.975 
375.057 
394.849 
384.486 
397.982 
399.425 
390.26 
388.815 
382.371 
390.736 
380.071 
400.06 
374.129 
400.469 
386.539 
380.221 
398.667 
404.845 
369.667 
404.71 
392.158 
395.425 
393.411 
388.975 
389.976 
393.784 
397.199 
400.396 
382.218 
395.877 
381.392 
391.612 
393.056 
393.624 
397.741 
404.248 
400.461 
367.589 
403.702 
393.892 
398.405 
392.803 
380.346 
395.1 
411.371 
409.437 
414.821 
401.474 
394.418 
395.123 
412.377 
