ITEM: TIMESTEP
67600000
ITEM: NUMBER OF CELLS
100
ITEM: BOX BOUNDS ss rr pp
0 0.0001
0 1e-05
-0.5 0.5
ITEM: CELLS f_temp1[*] 
394.128 
372.099 
381.786 
380.596 
372.309 
367.61 
365.26 
377.516 
383.912 
372.963 
378.453 
368.518 
393.089 
377.044 
377.51 
390.717 
368.239 
385.15 
372.592 
386.994 
380.267 
388.529 
398.679 
372.507 
382.684 
368.365 
405.217 
381.259 
378.241 
378.972 
386.991 
385.023 
372.314 
383.312 
386.332 
376.094 
398.082 
391.976 
377.449 
382.267 
397.987 
379.289 
386.582 
387.388 
378.891 
392.833 
379.319 
382.809 
403.062 
393.628 
391.081 
386.297 
382.485 
395.019 
394.964 
389.287 
398.089 
391.548 
396.944 
386.158 
396.444 
390.002 
369.638 
379.198 
381.964 
370.389 
380.058 
398.419 
374.76 
407.383 
384.42 
395.77 
389.24 
395.071 
382.255 
392.097 
387.814 
396.279 
393.72 
391.582 
396.006 
389.587 
405.507 
395.123 
395.088 
393.438 
404.418 
391.04 
416.613 
399.332 
408.465 
381.644 
409.949 
397.586 
393.198 
406.021 
405.838 
421.471 
400.541 
410.113 
