ITEM: TIMESTEP
25900000
ITEM: NUMBER OF CELLS
100
ITEM: BOX BOUNDS ss rr pp
0 0.0001
0 1e-05
-0.5 0.5
ITEM: CELLS f_temp1[*] 
371.629 
360.64 
382.324 
366.242 
388.212 
390.506 
374.809 
406.582 
369.899 
393.517 
369.42 
374.133 
375.016 
373.056 
382.99 
385.328 
372.078 
379.903 
385.167 
403.54 
384.481 
367.609 
391.645 
384.708 
385.55 
375.443 
382.734 
376.101 
385.041 
385.397 
405.177 
376.734 
394.914 
396.808 
393.073 
372.227 
390.97 
366.306 
384.624 
389.544 
393.741 
387.349 
386.266 
375.144 
390.035 
393.469 
382.084 
394.745 
402.392 
380.436 
388.893 
392.91 
379.532 
389.469 
392.037 
366.066 
387.886 
385.046 
385.069 
394.078 
391.648 
390.783 
393.526 
389.451 
394.897 
381.08 
381.035 
387.221 
392.194 
410.39 
403.555 
393.029 
377.751 
388.364 
398.383 
399.958 
398.698 
386.516 
386.478 
400.523 
395.707 
392.744 
390.631 
397.19 
393.409 
403.257 
407.145 
398.406 
397.321 
387.681 
393.429 
401.194 
399.505 
417.429 
397.514 
386.312 
398.853 
404.428 
397.716 
396.087 
