ITEM: TIMESTEP
78000000
ITEM: NUMBER OF CELLS
100
ITEM: BOX BOUNDS ss rr pp
0 0.0001
0 1e-05
-0.5 0.5
ITEM: CELLS f_temp1[*] 
376.876 
383.955 
379.394 
382.821 
367.771 
370.409 
384.599 
390.591 
394.696 
372.934 
374.63 
366.975 
381.819 
366.786 
379.516 
383.995 
377.125 
398.728 
388.271 
383.331 
376.239 
364.757 
371.353 
373.846 
380.644 
389.249 
364.153 
377.274 
384.804 
393.911 
379.671 
388.772 
387.265 
388.926 
385.37 
375.241 
387.039 
392.333 
384.45 
382.526 
366.203 
381.581 
378.038 
396.154 
372.308 
382.173 
387.531 
382.097 
384.843 
389.586 
393.151 
380.609 
379.318 
385.156 
399.387 
402.904 
379.295 
402.822 
391.722 
383.989 
387.692 
382.051 
398.605 
404.8 
391.247 
399.101 
389.732 
400.603 
395.007 
388.746 
381.502 
406.136 
384.18 
381.648 
400.639 
385.551 
383.26 
397.438 
389.933 
397.532 
386.359 
396.235 
391.74 
387.321 
404.913 
400.451 
399.81 
394.693 
397.677 
400.486 
400.033 
387.271 
392.723 
405.512 
405.612 
399.859 
398.551 
403.146 
411.563 
386.588 
