ITEM: TIMESTEP
3200000
ITEM: NUMBER OF CELLS
100
ITEM: BOX BOUNDS ss rr pp
0 0.0001
0 1e-05
-0.5 0.5
ITEM: CELLS f_temp1[*] 
367.703 
395.788 
371.44 
368.807 
374.567 
372.332 
371.888 
395.03 
380.288 
397.36 
393.279 
385.214 
369.227 
385.069 
390.605 
371.858 
387.928 
384.381 
369.947 
377.326 
375.503 
383.107 
390.175 
382.448 
376.485 
381.954 
380.6 
375.013 
381.716 
391.569 
382.95 
381.882 
384.273 
381.22 
393.981 
382.293 
385.604 
394.521 
389.975 
383.379 
380.329 
383.106 
383.258 
384.001 
382.727 
391.858 
379.267 
397.428 
389.911 
399.189 
394.086 
395.089 
390.456 
388.476 
388.347 
387.997 
400.956 
388.318 
387.632 
388.281 
383.665 
388.266 
390.219 
381.519 
394.198 
389.186 
386.581 
401.157 
393.715 
375.785 
392.919 
376.38 
405.911 
401.436 
398.395 
394.156 
392.198 
392.723 
386.522 
395.335 
398.375 
403.597 
394.074 
389.047 
384.651 
396.372 
402.655 
397.774 
405.13 
410.143 
401.221 
387.072 
392.941 
403.916 
405.572 
393.642 
397.29 
417.615 
386.93 
396.025 
