ITEM: TIMESTEP
20800000
ITEM: NUMBER OF CELLS
100
ITEM: BOX BOUNDS ss rr pp
0 0.0001
0 1e-05
-0.5 0.5
ITEM: CELLS f_temp1[*] 
374.596 
373.354 
378.48 
368.296 
374.72 
367.328 
366.082 
368.43 
374.237 
384.977 
393.939 
376.578 
392.652 
382.201 
375.275 
382.723 
379.598 
369.958 
379.79 
380.308 
380.44 
381.913 
392.292 
375.26 
377.139 
393.645 
379.251 
400.642 
385.579 
388.695 
395.823 
374.64 
383.295 
387.967 
383.918 
375.688 
397.604 
389.297 
421.133 
386.807 
378.175 
386.733 
395.022 
389.408 
373.147 
391.749 
387.443 
373.199 
377.119 
378.905 
400.683 
376.147 
392.675 
394.399 
390.406 
397.072 
407.273 
402.729 
403.845 
388.251 
380.294 
388.098 
391.084 
398.279 
395.527 
390.165 
384.778 
379.988 
405.111 
395.758 
405.351 
401.147 
376.257 
398.926 
397.732 
388.576 
392.42 
391.154 
388.88 
372.996 
407.503 
396.457 
385.477 
399.011 
398.997 
395.114 
393.537 
402.964 
393.139 
402.296 
402.854 
388.133 
385.68 
399.29 
398.243 
420.614 
386.447 
392.045 
398.398 
398.747 
