ITEM: TIMESTEP
33900000
ITEM: NUMBER OF CELLS
100
ITEM: BOX BOUNDS ss rr pp
0 0.0001
0 1e-05
-0.5 0.5
ITEM: CELLS f_temp1[*] 
372.367 
387.817 
376.809 
366.77 
370.183 
377.632 
378.987 
373.559 
373.048 
381.326 
376.046 
382.664 
374.115 
393.095 
374.872 
383.652 
377.328 
380.112 
364.951 
372.599 
377.45 
374.753 
384.102 
375.126 
375.192 
383.451 
386.792 
384.906 
382.702 
382.595 
388.418 
396.847 
394.225 
390.29 
404.634 
386.301 
389.361 
392.485 
375.91 
394.811 
385.987 
389.317 
371.771 
387.13 
385.638 
382.031 
394.038 
390.358 
379.314 
396.59 
399.367 
388.65 
371.115 
388.321 
408.31 
385.416 
385.49 
399.926 
384.005 
405.562 
387.025 
385.28 
393.475 
391.015 
377.723 
389.16 
392.448 
389.594 
405.834 
401.538 
391.414 
383.75 
392.125 
384.126 
379.744 
390.863 
368.899 
383.026 
381.402 
393.602 
391.95 
391.811 
377.479 
396.768 
399.192 
389.082 
404.918 
396.462 
391.874 
408.226 
394.597 
394.573 
403.077 
415.409 
402.112 
410.673 
427.595 
403.242 
405.672 
406.55 
