ITEM: TIMESTEP
2840000
ITEM: NUMBER OF CELLS
100
ITEM: BOX BOUNDS ss rr pp
0 0.0001
0 1e-06
-0.5 0.5
ITEM: CELLS f_temp1[*] 
378.435 
322.682 
341.215 
339.62 
392.211 
365.038 
384.66 
321.54 
357.459 
353.461 
383.48 
337.863 
358.515 
384.44 
361.937 
348.239 
356.019 
382.278 
361.592 
359.47 
356.628 
403.738 
438.687 
351.516 
403.609 
412.634 
363.361 
367.971 
398.372 
347.569 
329.537 
374.033 
382.152 
372.977 
397.31 
416.706 
413.782 
390.371 
415.08 
372.92 
346.102 
370.309 
418.094 
413.409 
405.204 
396.963 
384.492 
399.216 
410.749 
402.537 
383.331 
436.796 
352.11 
406.103 
377.627 
396.14 
398.958 
391.955 
419.96 
391.806 
379.06 
367.065 
412.624 
376.811 
357.414 
448.307 
404.028 
425.305 
414.852 
416.58 
423.655 
412.948 
409.071 
406.631 
392.353 
415.446 
391.805 
401.747 
407.487 
380.092 
448.724 
408.858 
446.005 
390.68 
432.135 
333.424 
410.739 
423.15 
377.487 
409.449 
396.082 
407.768 
386.07 
426.866 
377.472 
413.849 
435.716 
493.602 
436.283 
441.335 
