ITEM: TIMESTEP
7600000
ITEM: NUMBER OF CELLS
100
ITEM: BOX BOUNDS ss rr pp
0 0.0001
0 1e-05
-0.5 0.5
ITEM: CELLS f_temp1[*] 
382.702 
368.183 
375.186 
367.323 
391.884 
376.491 
379.141 
374.397 
385.34 
395.443 
386.516 
372.399 
380.963 
392.942 
371.469 
405.526 
377.926 
385.3 
382.004 
383.084 
374.73 
374.459 
387.459 
382.646 
380.59 
384.831 
382.628 
364.931 
378.964 
376.727 
387.942 
388.114 
378.056 
385.923 
389.287 
372.439 
381.815 
393.687 
376.408 
395.676 
392.328 
382.408 
391.959 
374.704 
388.247 
393.408 
384.686 
401.247 
388.938 
401.649 
386.166 
383.153 
382.699 
397.244 
392.343 
393.183 
393.029 
391.089 
393.871 
384.094 
394.052 
403.818 
397.155 
385.139 
382.827 
397.527 
397.845 
378.794 
381.911 
384.518 
406.113 
389.687 
397.675 
385.989 
390.084 
392.049 
405.19 
381.107 
397.075 
389.954 
382.86 
409.988 
401.807 
402.361 
393.898 
398.001 
398.179 
404.248 
379.654 
399.465 
388.333 
391.104 
387.851 
415.012 
412.559 
387.908 
398.584 
399.663 
379.621 
399.111 
