ITEM: TIMESTEP
26200000
ITEM: NUMBER OF CELLS
100
ITEM: BOX BOUNDS ss rr pp
0 0.0001
0 1e-05
-0.5 0.5
ITEM: CELLS f_temp1[*] 
363.818 
373.738 
358.18 
366.992 
375.37 
370.628 
379.481 
386.412 
383.229 
376.767 
389.506 
382.094 
373.081 
374.208 
371.927 
383.463 
371.748 
394.395 
380.742 
394.887 
384.119 
365.357 
375.084 
376.156 
371.866 
394.26 
369.527 
379.962 
395.327 
377.518 
394.651 
376.44 
382.863 
382.118 
383.078 
373.71 
371.603 
387.076 
395.633 
393.272 
383.427 
377.714 
391.952 
392.17 
391.303 
386.228 
391.925 
382.731 
394.196 
397.924 
391.141 
402.769 
379.743 
403.215 
390.61 
398.891 
384.308 
401.944 
383.603 
399.846 
386.822 
376.988 
382.829 
401.195 
401.401 
393.186 
390.889 
384.946 
392.318 
395.884 
403.856 
382.043 
407.27 
396.787 
411.964 
369.2 
392.542 
407.606 
384.984 
387.607 
405.865 
381.527 
395.399 
401.011 
395.722 
399.246 
408.554 
402.738 
400.149 
393.576 
405.922 
388.773 
393.035 
393.63 
394.656 
418.284 
393.928 
411.663 
395.506 
402.527 
