ITEM: TIMESTEP
2600000
ITEM: NUMBER OF CELLS
100
ITEM: BOX BOUNDS ss rr pp
0 0.0001
0 1e-05
-0.5 0.5
ITEM: CELLS f_temp1[*] 
364.369 
363.211 
367.107 
385.503 
376.084 
373.472 
375.093 
381.775 
369.596 
385.303 
392.935 
375.665 
368.509 
378.308 
387.957 
379.841 
384.476 
392.022 
387.5 
384.338 
394.764 
377.141 
368.692 
377.372 
376.595 
376.267 
374.826 
395.596 
381.058 
386.278 
389.582 
383.339 
376.138 
367.657 
390.414 
383.235 
378.522 
374.602 
395.303 
395.812 
380.896 
382.846 
397.456 
388.409 
369.292 
385.155 
379.558 
394.805 
391.44 
382.852 
383.12 
388.414 
385.286 
394.649 
384.062 
382.654 
383.987 
381.671 
392.701 
386.612 
384.526 
376.308 
393.119 
397.407 
389.406 
393.815 
396.243 
394.607 
396.349 
377.773 
393.528 
393.249 
384.444 
398.303 
396.403 
396.573 
392.835 
386.16 
396.785 
397.827 
410.179 
385.313 
388.614 
404.014 
393.285 
389.084 
394.008 
384.003 
390.722 
392.557 
382.92 
377.923 
393.82 
417.948 
390.455 
393.316 
386.45 
406.041 
402.754 
399.124 
