ITEM: TIMESTEP
7510000
ITEM: NUMBER OF CELLS
100
ITEM: BOX BOUNDS ss rr pp
0 0.0001
0 1e-06
-0.5 0.5
ITEM: CELLS f_temp1[*] 
402.045 
363.135 
367.449 
323.172 
368.036 
338.887 
364.759 
366.701 
348.626 
371.702 
367.099 
330.174 
391.799 
336.575 
397.821 
344.799 
364.238 
358.225 
355.155 
331.948 
379.756 
356.149 
393.084 
415.371 
380.343 
395.81 
366.74 
364.072 
373.178 
360.031 
337.428 
361.445 
369.153 
382.392 
380.305 
367.612 
402.952 
397.544 
392.738 
427.233 
364.777 
354.822 
403.886 
385.224 
403.928 
361.004 
430.443 
380.841 
379.532 
396.915 
414.038 
378.689 
387.537 
409.581 
449.938 
412.372 
420.72 
417.578 
351.215 
379.565 
394.3 
419.326 
427.277 
407.446 
426.857 
351.804 
370.964 
378.577 
380.408 
378.712 
421.919 
425.681 
400.021 
462.755 
421.002 
363.347 
451.13 
394.998 
454.225 
434.237 
464.928 
381.082 
402.669 
451.955 
430.284 
356.152 
412.649 
385.662 
427.248 
419.734 
408.781 
399.173 
405.218 
457.843 
401.404 
429.842 
419.582 
418.567 
424.708 
425.724 
