ITEM: TIMESTEP
90600000
ITEM: NUMBER OF CELLS
100
ITEM: BOX BOUNDS ss rr pp
0 0.0001
0 1e-05
-0.5 0.5
ITEM: CELLS f_temp1[*] 
377.944 
377.034 
379.107 
383.318 
381.342 
369.835 
378.397 
378.412 
383.658 
375.071 
377.864 
375.875 
385.049 
387.781 
372.485 
375.018 
394.437 
387.505 
377.122 
388.013 
366.119 
391.118 
376.541 
376.075 
374.663 
377.867 
398.571 
383.658 
383.397 
383.719 
381.333 
380.753 
383.384 
386.587 
389.202 
397.012 
380.162 
365.45 
393.743 
384.798 
385.35 
388.614 
396.722 
389.578 
379.393 
386.554 
387.22 
392.313 
403.478 
374.647 
395.344 
383.159 
390.457 
383.225 
395.27 
394.607 
385.691 
394.706 
388.269 
383.902 
385.852 
402.113 
398.756 
402.883 
386.412 
402.286 
385.217 
393.402 
375.072 
384.828 
391.565 
393.806 
385.528 
398.204 
382.76 
395.666 
391.086 
391.949 
388.479 
405.995 
388.853 
379.035 
409.437 
391.224 
412.141 
403.173 
407.929 
397.431 
394.916 
390.63 
414.783 
401.869 
392.08 
409.207 
402.273 
411.479 
398.796 
393.109 
399.334 
395.54 
