ITEM: TIMESTEP
5760000
ITEM: NUMBER OF CELLS
100
ITEM: BOX BOUNDS ss rr pp
0 0.0001
0 1e-06
-0.5 0.5
ITEM: CELLS f_temp1[*] 
320.197 
356.493 
395.217 
358.966 
369.841 
364.076 
361.35 
353.843 
357.268 
361.388 
338.305 
350.335 
368.398 
349.533 
359.156 
317.606 
345.717 
369.601 
405.67 
350.129 
335.939 
385.248 
353.198 
390.506 
392.945 
397.474 
404.424 
370.431 
362.837 
408.585 
432.531 
391.606 
423.514 
417.562 
434.969 
328.795 
388.4 
424.854 
386.884 
393.995 
429.898 
413.658 
369.321 
396.902 
438.653 
429.116 
399.073 
325.12 
415.825 
394.721 
423.195 
426.493 
360.97 
388.795 
411.851 
438.812 
390.874 
383.065 
394.275 
424.78 
370.668 
378.958 
423.081 
389.029 
388.966 
391.456 
426.421 
393.841 
416.672 
404.636 
413.541 
388.917 
426.009 
396.1 
416.472 
426.443 
384.615 
404.4 
355.078 
395.375 
355.575 
415.049 
446.27 
452.292 
373.321 
392.86 
437.639 
397.479 
487.942 
432.173 
393.677 
426.157 
420.818 
439.62 
407.653 
440.571 
445.908 
427.814 
423.394 
412.624 
