ITEM: TIMESTEP
98700000
ITEM: NUMBER OF CELLS
100
ITEM: BOX BOUNDS ss rr pp
0 0.0001
0 1e-05
-0.5 0.5
ITEM: CELLS f_temp1[*] 
368.951 
378.241 
370.363 
381.015 
379.129 
365.059 
375.621 
378.703 
374.849 
372.177 
370.738 
378.36 
376.75 
375.732 
390.456 
378.375 
386.814 
383.271 
401.057 
378.828 
393.202 
396.587 
380.34 
377.724 
384.124 
389.302 
373.502 
379.668 
391.45 
386.386 
388.636 
377.332 
388.803 
379.625 
376.63 
387.558 
379.395 
380.105 
375.331 
379.456 
392.101 
399.587 
388.974 
369.275 
381.964 
394.326 
379.836 
395.033 
391.464 
375.994 
390.28 
383.918 
389.557 
395.802 
382.99 
400.153 
392.536 
392.292 
394.953 
393.893 
399.962 
391.206 
400.737 
393.205 
396.509 
390.118 
395.611 
402.781 
393.02 
397.566 
403.059 
396.459 
389.458 
384.775 
384.003 
390.857 
396.547 
390.41 
399.171 
395.589 
423.437 
391.027 
388.054 
397.495 
402.215 
387.836 
399.65 
392.98 
383.301 
380.608 
404.806 
387.839 
412.162 
390.015 
405.895 
409.022 
412.271 
391.123 
391.808 
417.962 
