ITEM: TIMESTEP
2960000
ITEM: NUMBER OF CELLS
100
ITEM: BOX BOUNDS ss rr pp
0 0.0001
0 1e-06
-0.5 0.5
ITEM: CELLS f_temp1[*] 
393.026 
310.838 
380.508 
398.854 
353.964 
356.924 
333.561 
395.753 
338.028 
345.207 
375.287 
348.806 
378.549 
322.686 
392.95 
355.787 
373.902 
368.613 
343.793 
329.576 
385.234 
361.669 
380.708 
376.785 
406.095 
369.696 
353.22 
380.688 
364.677 
415.622 
409.598 
381.761 
365.788 
408.393 
436.512 
399.384 
358.907 
375.974 
376.701 
411.455 
379.272 
359.766 
366.335 
439.958 
356.43 
373.642 
424.261 
399.113 
395.884 
390.046 
342.672 
369.649 
385.736 
369.322 
417.868 
372.261 
379.61 
413.797 
382.548 
362.265 
403.201 
386.01 
371.026 
369.394 
357.241 
338.588 
396.157 
378.172 
409.641 
362.23 
453.191 
419.755 
397.904 
395.528 
377.308 
437.443 
409.032 
422.324 
438.899 
427.14 
426.557 
423.407 
435.694 
403.528 
441.534 
440.258 
399.253 
445.013 
433.008 
419.072 
409.636 
402.928 
456.442 
426.506 
478.684 
414.174 
466.376 
381.28 
422.789 
448.533 
