ITEM: TIMESTEP
8830000
ITEM: NUMBER OF CELLS
100
ITEM: BOX BOUNDS ss rr pp
0 0.0001
0 1e-06
-0.5 0.5
ITEM: CELLS f_temp1[*] 
359.121 
393.539 
326.699 
333.934 
335.302 
339.881 
370.37 
347.805 
347.941 
320.33 
359.44 
361.431 
368.952 
416.987 
398.524 
315.711 
303.863 
385.118 
364.752 
395.086 
387.008 
351.994 
372.635 
380.666 
353.822 
387.679 
391.358 
343.14 
367.378 
374.299 
410.967 
374.713 
396.913 
382.948 
382.989 
379.28 
378.667 
390.713 
400.31 
387.565 
365.402 
366.678 
346.332 
403.902 
366.823 
365.401 
383.651 
368.801 
387.513 
378.092 
366.279 
398.721 
364.353 
409.677 
356.943 
337.574 
334.767 
390.436 
362.678 
435.157 
433.967 
405.548 
397.624 
393.38 
405.235 
414.978 
418.13 
408.277 
355.187 
391.435 
382.016 
405.565 
382.484 
390.373 
372.566 
382.817 
379.744 
422.654 
408.664 
395.945 
402.997 
446.83 
424.785 
455.091 
473.586 
412.484 
390.878 
386.887 
391.543 
397.853 
362.38 
456.196 
428.671 
415.323 
429.289 
449.029 
433.167 
417.803 
397.823 
391.432 
