ITEM: TIMESTEP
44000000
ITEM: NUMBER OF CELLS
100
ITEM: BOX BOUNDS ss rr pp
0 0.0001
0 1e-05
-0.5 0.5
ITEM: CELLS f_temp1[*] 
353.349 
387.277 
396.948 
371.847 
376.325 
371.072 
371.056 
375.225 
387 
388.362 
392.258 
380.73 
375.832 
382.232 
371.919 
377.871 
383.937 
368.398 
387.089 
386.542 
371.384 
380.15 
392.999 
385.826 
384.947 
385.551 
375.593 
380.672 
372.963 
390.645 
383.509 
375.629 
380.709 
374.239 
377.102 
385.768 
391.581 
413.709 
376.205 
379.192 
386.141 
385.609 
390.484 
379.088 
377.678 
391.555 
393.907 
385.367 
369.567 
382.129 
393.206 
396.811 
387.677 
391.035 
396.439 
408.148 
377.489 
396.757 
365.64 
383.515 
394.266 
391.546 
393.462 
398.937 
397.699 
377.42 
388.993 
381.603 
388.638 
405.525 
394.096 
395.021 
386.716 
372.386 
380.043 
400.31 
398.824 
402.36 
387.183 
381.489 
397.669 
397.202 
387.104 
412.614 
396.039 
408.705 
399.777 
398.588 
378.193 
388.186 
402.716 
392.996 
408.585 
399.669 
390.244 
396.083 
397.168 
404.907 
397.997 
405.984 
