ITEM: TIMESTEP
3050000
ITEM: NUMBER OF CELLS
100
ITEM: BOX BOUNDS ss rr pp
0 0.0001
0 1e-06
-0.5 0.5
ITEM: CELLS f_temp1[*] 
304.406 
414.091 
357.336 
358.126 
339.423 
360.05 
356.573 
374.029 
335.767 
373.241 
303.491 
344.644 
421.843 
437.422 
366.624 
376.272 
350.179 
376.306 
351.636 
379.094 
336.494 
406.28 
394.768 
350.502 
352.777 
363.68 
396.134 
340.731 
374.423 
364.676 
380.535 
370.328 
360.948 
351.179 
363.622 
377.464 
363.774 
416.323 
392.907 
384.762 
412.503 
386.569 
387.217 
370.146 
392.093 
394.43 
388.954 
424.897 
359.131 
410.164 
361.705 
401.173 
441.888 
421.739 
348.294 
399.209 
403.789 
375.68 
351.42 
351.825 
436.882 
392.147 
377.255 
393.236 
402.625 
371.657 
366.052 
390.418 
413.261 
407.88 
400.976 
367.177 
448.723 
340.78 
386.464 
408.202 
355.329 
427.264 
361.782 
426.304 
385.296 
398.801 
432.23 
446.292 
414.443 
442.985 
392.775 
427.388 
400.358 
410.906 
451.556 
413.428 
417.285 
387.807 
435.122 
462.905 
454.266 
425.606 
396.229 
464.205 
