ITEM: TIMESTEP
7360000
ITEM: NUMBER OF CELLS
100
ITEM: BOX BOUNDS ss rr pp
0 0.0001
0 1e-06
-0.5 0.5
ITEM: CELLS f_temp1[*] 
388.1 
375.847 
340.253 
347.03 
397.276 
368.166 
385.919 
390.315 
358.56 
401.172 
392.371 
406.836 
389.585 
426.349 
391.424 
366.613 
335.903 
376.244 
358.383 
345.792 
361.9 
353.911 
360.926 
307.688 
373.956 
393.517 
425.285 
362.028 
350.178 
348.201 
385.666 
364.441 
386.18 
400.845 
388.864 
397.736 
338.429 
380.118 
388.224 
380.828 
418.942 
408.957 
383.067 
392.612 
383.201 
370.75 
413.171 
376.082 
381.303 
364.305 
372.26 
396.157 
408.636 
407.054 
374.078 
394.113 
363.951 
424.593 
395.119 
416.316 
389.844 
406.38 
433.617 
410.046 
361.779 
364.757 
398.476 
408.043 
397.745 
404.024 
425.247 
391.894 
396.803 
391.011 
433.641 
396.661 
452.179 
401.284 
404.872 
427.274 
396.299 
392.045 
373.659 
481.366 
456.726 
413.676 
396.063 
382.072 
398.166 
387.359 
406.172 
402.209 
394.605 
367.313 
394.321 
410.956 
447.228 
433.016 
402.598 
396.095 
