ITEM: TIMESTEP
71300000
ITEM: NUMBER OF CELLS
100
ITEM: BOX BOUNDS ss rr pp
0 0.0001
0 1e-05
-0.5 0.5
ITEM: CELLS f_temp1[*] 
357.689 
376.408 
383.264 
380.012 
372.029 
383.264 
381.135 
364.255 
361.827 
381.944 
378.067 
380.018 
370.687 
381.367 
383.64 
385.688 
362.729 
384.69 
396.192 
388.441 
370.138 
382.291 
375.586 
384.333 
369.124 
380.519 
382.618 
378.427 
385.517 
387.707 
383.215 
391.63 
378.576 
389.109 
376.438 
385.118 
390.524 
387.21 
380.145 
390.252 
380.532 
375.124 
377.7 
383.237 
392.398 
379.345 
384.116 
387.018 
406.393 
397.669 
378.783 
394.978 
380.686 
390.072 
391.805 
390.889 
376.602 
376.88 
388.814 
388.569 
382.5 
383.989 
380.837 
412.404 
402.083 
383.955 
395.98 
389.216 
378.471 
403.136 
384.65 
381.147 
395.158 
389.583 
384.641 
385.387 
391.761 
390.112 
394.231 
386.097 
381.872 
394.187 
388.023 
380.577 
382.939 
395.34 
382.392 
392.989 
383.494 
398.308 
402.606 
383.059 
406.126 
391.265 
403.371 
398.983 
394.753 
398.556 
386.172 
406.703 
