ITEM: TIMESTEP
60500000
ITEM: NUMBER OF CELLS
100
ITEM: BOX BOUNDS ss rr pp
0 0.0001
0 1e-05
-0.5 0.5
ITEM: CELLS f_temp1[*] 
373.347 
364.913 
371.647 
376.174 
376.313 
391.383 
372.284 
355.337 
386.562 
378.678 
376.314 
392.844 
387.939 
381.136 
378.38 
368.676 
383.284 
378.194 
391.591 
376.275 
370.114 
382.429 
388.058 
386.945 
391.016 
384.921 
387.391 
386.262 
372.522 
380.091 
385.145 
391.435 
383.887 
399.122 
383.019 
396.87 
385.639 
394.865 
390.676 
387.768 
384.798 
379.295 
385.634 
392.077 
394.607 
379.204 
368.954 
382.453 
396.789 
389.506 
393.707 
385.952 
392.012 
390.845 
388.402 
373.33 
385.173 
386.141 
393.639 
374.512 
398.688 
406.551 
401.238 
401.656 
396.392 
392.412 
394.586 
392.907 
387.882 
396.744 
391.129 
376.624 
385.619 
403.957 
378.511 
398.785 
391.859 
397.926 
394.979 
393.215 
385.698 
408.262 
400.929 
393.716 
402.866 
385.179 
397.334 
394.053 
399.995 
399.145 
399.089 
397.189 
390.986 
406.842 
380.385 
390.309 
388.881 
405.802 
401.532 
398.053 
