ITEM: TIMESTEP
40100000
ITEM: NUMBER OF CELLS
100
ITEM: BOX BOUNDS ss rr pp
0 0.0001
0 1e-05
-0.5 0.5
ITEM: CELLS f_temp1[*] 
384.156 
376.013 
377.974 
365.595 
379.366 
379.342 
387.635 
357.117 
387.221 
382.108 
372.002 
378.277 
377.208 
371.716 
379.679 
383.934 
378.852 
385.245 
379.629 
377.149 
377.786 
386.814 
397.278 
378.423 
376.88 
382.687 
378.348 
388.149 
382.826 
390.738 
374.832 
382.08 
389.479 
407.957 
388.003 
383.8 
374.199 
378.721 
384.763 
398.142 
384.934 
390.783 
385.913 
371.831 
396.111 
384.085 
390.975 
386.44 
385.058 
393.981 
381.368 
378.677 
400.222 
378.974 
392.182 
400.314 
392.244 
395.32 
401.472 
397.114 
390.351 
393.527 
396.632 
393.436 
389.165 
385.749 
388.04 
388.805 
396.738 
407.26 
399.167 
389.574 
397.313 
389.116 
397.418 
413.777 
387.509 
375.3 
402.311 
387.15 
395.582 
388.208 
378.497 
389.513 
382.066 
413.189 
371.812 
396.882 
406.132 
394.745 
395.25 
401.28 
398.031 
395.29 
400.395 
395.621 
405.048 
402.832 
394.582 
399.773 
