ITEM: TIMESTEP
6520000
ITEM: NUMBER OF CELLS
100
ITEM: BOX BOUNDS ss rr pp
0 0.0001
0 1e-06
-0.5 0.5
ITEM: CELLS f_temp1[*] 
352.454 
327.542 
313.588 
356.532 
372.434 
387.563 
366.422 
352.685 
405.973 
384.492 
352.567 
347.76 
352.652 
374.5 
352.291 
378.147 
373.698 
361.874 
322.425 
360.47 
358.184 
398.38 
378.994 
376.356 
374.41 
406.437 
399.859 
431.318 
333.625 
418.373 
356.086 
372.68 
392.6 
355.62 
421.939 
401.918 
399.341 
405.916 
348.553 
371.592 
385.719 
373.532 
357.845 
409.171 
388.309 
356.041 
431.56 
413.294 
425.996 
410.688 
406.178 
443.435 
396.547 
419.81 
399.653 
383.264 
380.03 
398.005 
399.42 
392.332 
388.517 
369.22 
422.647 
436.142 
414.156 
443.455 
408.341 
387.425 
432.402 
449.698 
423.485 
407.346 
398.394 
414.853 
412.168 
434.422 
357.783 
431.565 
391.501 
422.399 
406.8 
427.092 
409.011 
379.017 
408.009 
425.665 
394.768 
417.669 
391.366 
384.863 
377.093 
418.24 
347.202 
451.532 
454.294 
409.37 
438.59 
441.289 
430.949 
456.942 
