ITEM: TIMESTEP
72900000
ITEM: NUMBER OF CELLS
100
ITEM: BOX BOUNDS ss rr pp
0 0.001
0 1e-05
-0.5 0.5
ITEM: CELLS c_particles[1] 
24 
20 
18 
16 
21 
20 
17 
16 
22 
22 
19 
25 
17 
33 
27 
23 
20 
17 
19 
21 
13 
12 
25 
18 
15 
14 
12 
18 
19 
21 
22 
22 
11 
22 
18 
17 
29 
21 
23 
25 
17 
28 
22 
15 
16 
19 
18 
19 
21 
19 
22 
14 
19 
26 
21 
25 
21 
24 
22 
22 
29 
24 
27 
17 
18 
15 
18 
26 
22 
16 
25 
18 
17 
30 
23 
22 
16 
25 
21 
17 
17 
22 
18 
16 
22 
24 
18 
15 
14 
21 
17 
12 
22 
17 
16 
22 
15 
20 
21 
21 
