ITEM: TIMESTEP
591700000
ITEM: NUMBER OF CELLS
100
ITEM: BOX BOUNDS ss rr pp
0 0.001
0 1e-05
-0.5 0.5
ITEM: CELLS c_particles[1] 
23 
23 
18 
24 
20 
20 
22 
25 
18 
21 
17 
18 
13 
18 
16 
23 
23 
18 
24 
24 
14 
17 
18 
17 
23 
15 
22 
19 
18 
18 
23 
29 
16 
21 
17 
19 
24 
17 
27 
25 
17 
28 
29 
15 
18 
16 
21 
17 
15 
21 
25 
17 
10 
20 
24 
14 
15 
34 
22 
16 
25 
15 
21 
17 
18 
21 
15 
15 
22 
17 
18 
20 
28 
23 
18 
18 
19 
17 
22 
23 
24 
10 
28 
28 
18 
15 
21 
21 
20 
14 
20 
22 
22 
29 
13 
20 
22 
14 
22 
24 
