ITEM: TIMESTEP
172700000
ITEM: NUMBER OF CELLS
100
ITEM: BOX BOUNDS ss rr pp
0 0.001
0 1e-05
-0.5 0.5
ITEM: CELLS c_particles[1] 
15 
27 
24 
19 
22 
26 
18 
14 
19 
25 
26 
24 
21 
21 
18 
25 
31 
20 
12 
19 
18 
13 
20 
19 
14 
20 
21 
15 
21 
21 
22 
17 
20 
22 
22 
22 
15 
17 
22 
22 
17 
20 
18 
17 
18 
20 
17 
15 
20 
20 
18 
19 
21 
24 
18 
22 
25 
16 
25 
22 
17 
19 
16 
31 
18 
20 
23 
21 
22 
19 
9 
29 
28 
30 
18 
24 
21 
17 
16 
19 
23 
18 
21 
9 
24 
19 
19 
20 
15 
20 
15 
21 
17 
22 
19 
21 
18 
25 
15 
21 
