ITEM: TIMESTEP
761000000
ITEM: NUMBER OF CELLS
100
ITEM: BOX BOUNDS ss rr pp
0 0.001
0 1e-05
-0.5 0.5
ITEM: CELLS c_particles[1] 
21 
23 
22 
21 
17 
21 
17 
18 
16 
21 
16 
18 
18 
23 
26 
19 
31 
29 
19 
16 
13 
12 
28 
19 
22 
18 
29 
17 
19 
19 
19 
26 
21 
22 
24 
14 
24 
22 
21 
12 
17 
16 
19 
23 
16 
15 
17 
23 
22 
24 
24 
19 
21 
16 
13 
30 
18 
22 
16 
17 
21 
19 
31 
23 
22 
18 
17 
15 
13 
22 
30 
13 
17 
14 
9 
22 
19 
13 
19 
25 
18 
20 
22 
14 
21 
27 
24 
24 
19 
16 
18 
17 
18 
21 
18 
19 
27 
22 
28 
24 
