ITEM: TIMESTEP
630900000
ITEM: NUMBER OF CELLS
100
ITEM: BOX BOUNDS ss rr pp
0 0.001
0 1e-05
-0.5 0.5
ITEM: CELLS c_particles[1] 
8 
26 
25 
15 
20 
22 
12 
21 
16 
18 
22 
20 
20 
20 
19 
20 
14 
24 
21 
20 
22 
18 
24 
24 
20 
16 
26 
24 
19 
14 
21 
22 
20 
17 
26 
20 
24 
19 
24 
20 
19 
24 
21 
18 
26 
17 
28 
18 
20 
29 
21 
19 
18 
23 
18 
12 
13 
19 
16 
20 
27 
20 
28 
24 
14 
21 
23 
14 
22 
13 
24 
23 
20 
15 
18 
26 
16 
18 
23 
20 
26 
15 
22 
24 
15 
13 
18 
19 
18 
21 
21 
22 
14 
18 
25 
21 
21 
18 
23 
15 
