ITEM: TIMESTEP
80900000
ITEM: NUMBER OF CELLS
100
ITEM: BOX BOUNDS ss rr pp
0 0.001
0 1e-05
-0.5 0.5
ITEM: CELLS c_particles[1] 
16 
24 
24 
27 
18 
24 
25 
25 
22 
24 
28 
26 
16 
21 
17 
20 
20 
24 
21 
27 
24 
12 
23 
18 
25 
31 
14 
17 
21 
24 
22 
13 
16 
24 
18 
17 
18 
20 
21 
15 
25 
19 
14 
11 
22 
10 
14 
19 
23 
25 
13 
21 
22 
17 
22 
18 
18 
16 
20 
15 
17 
19 
16 
14 
26 
20 
19 
22 
22 
22 
15 
26 
20 
20 
30 
19 
23 
22 
21 
21 
17 
18 
23 
16 
23 
15 
23 
17 
22 
18 
20 
19 
16 
22 
27 
19 
11 
19 
22 
13 
