ITEM: TIMESTEP
519900000
ITEM: NUMBER OF CELLS
100
ITEM: BOX BOUNDS ss rr pp
0 0.001
0 1e-05
-0.5 0.5
ITEM: CELLS c_particles[1] 
17 
23 
17 
18 
18 
25 
25 
16 
16 
26 
19 
24 
27 
19 
14 
25 
28 
25 
17 
19 
22 
12 
13 
19 
21 
20 
11 
28 
15 
20 
21 
17 
19 
23 
23 
26 
17 
21 
24 
25 
19 
26 
18 
19 
20 
27 
18 
21 
18 
17 
20 
23 
24 
24 
19 
22 
16 
26 
13 
24 
19 
25 
26 
18 
12 
25 
15 
15 
14 
13 
17 
19 
12 
18 
15 
16 
25 
20 
21 
22 
17 
13 
20 
26 
20 
23 
23 
21 
22 
18 
22 
18 
21 
20 
28 
22 
20 
16 
14 
20 
