ITEM: TIMESTEP
645600000
ITEM: NUMBER OF CELLS
100
ITEM: BOX BOUNDS ss rr pp
0 0.001
0 1e-05
-0.5 0.5
ITEM: CELLS c_particles[1] 
25 
17 
25 
20 
19 
16 
15 
17 
24 
21 
24 
23 
12 
17 
14 
14 
28 
19 
21 
22 
25 
20 
18 
22 
17 
16 
27 
27 
19 
18 
15 
16 
17 
25 
17 
21 
22 
18 
24 
15 
29 
22 
16 
19 
23 
31 
23 
18 
22 
15 
17 
21 
15 
15 
25 
23 
17 
23 
18 
28 
13 
23 
19 
20 
21 
21 
13 
15 
16 
18 
25 
20 
16 
11 
31 
15 
25 
23 
22 
26 
18 
19 
21 
16 
14 
20 
15 
32 
14 
23 
20 
17 
29 
18 
26 
23 
27 
13 
9 
21 
