ITEM: TIMESTEP
657500000
ITEM: NUMBER OF CELLS
100
ITEM: BOX BOUNDS ss rr pp
0 0.001
0 1e-05
-0.5 0.5
ITEM: CELLS c_particles[1] 
18 
20 
32 
21 
18 
30 
15 
17 
21 
21 
19 
18 
16 
9 
14 
13 
26 
13 
9 
15 
24 
12 
17 
23 
23 
9 
14 
23 
23 
18 
24 
18 
20 
14 
22 
17 
21 
21 
25 
18 
22 
26 
19 
26 
21 
20 
31 
23 
24 
27 
20 
19 
19 
21 
13 
19 
21 
17 
22 
16 
17 
33 
21 
16 
22 
19 
13 
26 
12 
27 
18 
22 
15 
17 
26 
18 
20 
19 
19 
20 
19 
26 
19 
28 
24 
26 
15 
20 
22 
23 
13 
19 
30 
20 
17 
18 
28 
22 
16 
18 
