ITEM: TIMESTEP
511600000
ITEM: NUMBER OF CELLS
100
ITEM: BOX BOUNDS ss rr pp
0 0.001
0 1e-05
-0.5 0.5
ITEM: CELLS c_particles[1] 
11 
23 
23 
17 
23 
22 
12 
19 
15 
28 
13 
23 
24 
20 
22 
28 
19 
21 
23 
18 
15 
15 
19 
14 
20 
19 
18 
15 
17 
24 
15 
15 
19 
21 
16 
25 
16 
22 
27 
21 
19 
24 
20 
21 
18 
15 
28 
18 
15 
17 
13 
17 
20 
21 
22 
21 
18 
22 
15 
22 
21 
22 
28 
31 
22 
18 
26 
18 
21 
22 
22 
12 
21 
26 
31 
24 
16 
19 
20 
23 
13 
16 
21 
19 
20 
18 
21 
31 
11 
29 
20 
18 
10 
28 
24 
21 
17 
21 
14 
22 
