ITEM: TIMESTEP
77500000
ITEM: NUMBER OF CELLS
100
ITEM: BOX BOUNDS ss rr pp
0 0.001
0 1e-05
-0.5 0.5
ITEM: CELLS c_particles[1] 
19 
26 
24 
17 
10 
24 
17 
21 
23 
17 
18 
29 
20 
20 
29 
17 
12 
22 
21 
31 
22 
16 
19 
9 
19 
17 
31 
27 
27 
18 
20 
14 
19 
14 
14 
22 
21 
24 
18 
20 
12 
20 
22 
12 
26 
17 
15 
18 
25 
15 
18 
20 
23 
17 
19 
21 
21 
25 
25 
20 
21 
20 
20 
27 
20 
24 
25 
18 
21 
17 
16 
22 
23 
25 
22 
19 
15 
20 
19 
24 
28 
18 
19 
21 
26 
21 
18 
16 
19 
14 
23 
11 
15 
17 
19 
20 
25 
21 
17 
15 
