ITEM: TIMESTEP
394000000
ITEM: NUMBER OF CELLS
100
ITEM: BOX BOUNDS ss rr pp
0 0.001
0 1e-05
-0.5 0.5
ITEM: CELLS c_particles[1] 
20 
21 
20 
19 
13 
17 
26 
17 
18 
30 
17 
24 
19 
22 
27 
12 
21 
18 
23 
22 
9 
14 
17 
22 
25 
11 
20 
19 
20 
15 
18 
27 
19 
18 
25 
32 
23 
23 
14 
17 
24 
26 
13 
17 
28 
29 
12 
17 
18 
25 
13 
25 
23 
14 
17 
21 
16 
23 
28 
19 
16 
13 
19 
18 
29 
23 
26 
16 
18 
15 
20 
28 
19 
20 
21 
19 
22 
22 
14 
16 
23 
17 
24 
19 
28 
25 
24 
26 
16 
24 
14 
17 
14 
22 
17 
19 
18 
13 
19 
25 
