ITEM: TIMESTEP
230000000
ITEM: NUMBER OF CELLS
100
ITEM: BOX BOUNDS ss rr pp
0 0.001
0 1e-05
-0.5 0.5
ITEM: CELLS c_particles[1] 
18 
17 
26 
14 
19 
22 
15 
27 
17 
15 
16 
19 
27 
24 
26 
22 
22 
19 
25 
21 
22 
22 
26 
19 
22 
28 
13 
16 
17 
30 
20 
24 
19 
22 
15 
29 
8 
12 
12 
24 
22 
23 
11 
22 
21 
20 
16 
22 
18 
23 
23 
21 
14 
19 
17 
27 
21 
21 
15 
17 
16 
24 
15 
24 
18 
26 
15 
22 
22 
22 
20 
27 
19 
15 
24 
27 
24 
24 
17 
24 
22 
13 
21 
16 
22 
24 
15 
14 
24 
25 
11 
20 
12 
19 
16 
19 
21 
18 
18 
21 
