ITEM: TIMESTEP
276900000
ITEM: NUMBER OF CELLS
100
ITEM: BOX BOUNDS ss rr pp
0 0.001
0 1e-05
-0.5 0.5
ITEM: CELLS c_particles[1] 
18 
20 
15 
25 
21 
25 
16 
30 
23 
16 
16 
16 
23 
26 
21 
26 
23 
17 
17 
25 
23 
24 
11 
10 
15 
30 
23 
16 
17 
16 
28 
13 
20 
17 
23 
22 
30 
22 
18 
16 
21 
18 
9 
23 
21 
15 
14 
11 
21 
20 
19 
20 
16 
19 
16 
24 
25 
14 
21 
13 
15 
21 
17 
15 
26 
21 
26 
24 
19 
15 
18 
26 
22 
14 
18 
20 
24 
23 
26 
23 
22 
19 
16 
18 
22 
28 
31 
11 
16 
20 
14 
27 
16 
30 
19 
11 
15 
30 
28 
21 
