ITEM: TIMESTEP
393000000
ITEM: NUMBER OF CELLS
100
ITEM: BOX BOUNDS ss rr pp
0 0.001
0 1e-05
-0.5 0.5
ITEM: CELLS c_particles[1] 
19 
26 
14 
20 
21 
20 
20 
21 
15 
12 
18 
20 
23 
15 
21 
20 
27 
14 
17 
20 
20 
16 
23 
23 
24 
25 
33 
14 
18 
20 
14 
17 
25 
20 
24 
21 
14 
27 
18 
29 
21 
20 
19 
15 
18 
24 
15 
16 
22 
18 
27 
21 
22 
16 
15 
17 
21 
16 
22 
19 
27 
23 
19 
23 
24 
15 
22 
27 
14 
17 
20 
24 
19 
23 
16 
19 
21 
17 
21 
27 
17 
18 
26 
28 
20 
21 
20 
20 
19 
28 
18 
20 
11 
16 
14 
19 
19 
13 
21 
22 
