ITEM: TIMESTEP
482100000
ITEM: NUMBER OF CELLS
100
ITEM: BOX BOUNDS ss rr pp
0 0.001
0 1e-05
-0.5 0.5
ITEM: CELLS c_particles[1] 
24 
24 
25 
7 
35 
20 
20 
14 
18 
27 
24 
20 
25 
14 
23 
27 
16 
20 
19 
18 
10 
23 
12 
21 
27 
29 
28 
27 
12 
18 
21 
14 
21 
13 
19 
16 
27 
15 
18 
23 
30 
18 
21 
26 
16 
17 
15 
21 
20 
19 
21 
16 
21 
19 
22 
19 
16 
17 
25 
21 
23 
23 
21 
19 
13 
30 
24 
26 
19 
15 
19 
23 
20 
21 
14 
22 
18 
31 
16 
11 
19 
19 
22 
19 
22 
29 
16 
16 
16 
21 
21 
18 
14 
20 
16 
14 
21 
11 
27 
17 
