ITEM: TIMESTEP
441300000
ITEM: NUMBER OF CELLS
100
ITEM: BOX BOUNDS ss rr pp
0 0.001
0 1e-05
-0.5 0.5
ITEM: CELLS c_particles[1] 
15 
21 
11 
37 
23 
16 
23 
14 
14 
22 
21 
22 
24 
20 
21 
16 
19 
22 
24 
21 
21 
19 
20 
16 
19 
18 
21 
21 
27 
18 
28 
28 
25 
17 
17 
24 
20 
19 
26 
16 
21 
27 
16 
23 
16 
20 
18 
22 
24 
16 
15 
22 
18 
14 
20 
28 
21 
14 
16 
22 
17 
20 
14 
12 
25 
26 
25 
15 
23 
18 
15 
28 
26 
23 
18 
20 
14 
19 
24 
21 
11 
18 
19 
13 
20 
27 
16 
16 
19 
22 
16 
15 
27 
30 
21 
23 
12 
13 
19 
21 
