ITEM: TIMESTEP
475300000
ITEM: NUMBER OF CELLS
100
ITEM: BOX BOUNDS ss rr pp
0 0.001
0 1e-05
-0.5 0.5
ITEM: CELLS c_particles[1] 
21 
23 
20 
9 
18 
23 
17 
22 
10 
13 
20 
21 
19 
17 
18 
26 
32 
27 
38 
11 
16 
18 
22 
22 
22 
15 
21 
17 
15 
20 
16 
23 
22 
15 
20 
27 
29 
16 
19 
16 
16 
27 
16 
16 
17 
20 
19 
26 
22 
20 
22 
24 
21 
22 
22 
18 
23 
21 
16 
22 
19 
23 
22 
20 
27 
21 
26 
21 
20 
13 
18 
22 
15 
15 
19 
20 
12 
13 
16 
18 
17 
26 
22 
19 
28 
18 
22 
22 
10 
7 
19 
22 
22 
20 
24 
25 
31 
28 
15 
17 
