ITEM: TIMESTEP
434500000
ITEM: NUMBER OF CELLS
100
ITEM: BOX BOUNDS ss rr pp
0 0.001
0 1e-05
-0.5 0.5
ITEM: CELLS c_particles[1] 
25 
20 
29 
22 
22 
22 
18 
27 
28 
14 
23 
21 
9 
14 
18 
29 
17 
16 
31 
22 
17 
24 
14 
20 
27 
25 
23 
28 
23 
17 
18 
25 
20 
26 
21 
21 
23 
22 
16 
20 
23 
20 
23 
19 
12 
14 
23 
20 
20 
12 
25 
23 
19 
19 
18 
23 
13 
17 
13 
14 
18 
28 
19 
10 
19 
25 
26 
14 
16 
18 
14 
16 
18 
21 
19 
22 
17 
22 
21 
26 
25 
22 
17 
13 
17 
15 
22 
18 
16 
28 
16 
14 
19 
19 
28 
16 
16 
20 
22 
21 
