ITEM: TIMESTEP
113100000
ITEM: NUMBER OF CELLS
100
ITEM: BOX BOUNDS ss rr pp
0 0.001
0 1e-05
-0.5 0.5
ITEM: CELLS c_particles[1] 
24 
23 
15 
21 
26 
16 
19 
19 
17 
22 
19 
21 
24 
15 
13 
20 
20 
15 
20 
17 
24 
21 
18 
31 
20 
24 
23 
25 
15 
18 
28 
22 
26 
20 
13 
13 
19 
22 
33 
20 
17 
18 
17 
19 
13 
25 
21 
21 
26 
22 
25 
21 
22 
15 
20 
27 
16 
15 
18 
24 
13 
16 
19 
23 
24 
19 
30 
24 
25 
18 
21 
20 
15 
18 
17 
24 
22 
19 
17 
13 
14 
14 
21 
22 
18 
16 
10 
20 
24 
20 
12 
14 
20 
17 
32 
20 
24 
20 
25 
17 
