ITEM: TIMESTEP
479100000
ITEM: NUMBER OF CELLS
100
ITEM: BOX BOUNDS ss rr pp
0 0.001
0 1e-05
-0.5 0.5
ITEM: CELLS c_particles[1] 
26 
22 
12 
18 
20 
17 
23 
27 
13 
20 
19 
19 
23 
14 
24 
22 
27 
21 
30 
16 
20 
18 
20 
22 
19 
20 
26 
17 
21 
19 
18 
18 
21 
21 
16 
18 
19 
14 
24 
17 
24 
21 
21 
20 
14 
18 
19 
21 
19 
26 
22 
21 
21 
21 
15 
21 
28 
19 
24 
22 
21 
20 
12 
19 
11 
19 
22 
21 
24 
18 
23 
23 
13 
19 
18 
14 
15 
13 
29 
16 
20 
19 
23 
21 
20 
27 
18 
17 
18 
18 
26 
25 
26 
14 
20 
26 
26 
11 
17 
20 
