ITEM: TIMESTEP
145800000
ITEM: NUMBER OF CELLS
100
ITEM: BOX BOUNDS ss rr pp
0 0.001
0 1e-05
-0.5 0.5
ITEM: CELLS c_particles[1] 
16 
13 
21 
22 
23 
26 
19 
30 
21 
22 
20 
25 
17 
20 
18 
22 
24 
17 
22 
28 
14 
24 
25 
17 
26 
17 
20 
23 
11 
26 
19 
18 
20 
17 
19 
26 
25 
18 
24 
23 
21 
28 
13 
24 
19 
21 
17 
18 
23 
15 
14 
19 
25 
16 
24 
23 
21 
16 
20 
15 
22 
24 
22 
15 
22 
19 
22 
16 
21 
19 
21 
19 
13 
20 
18 
17 
24 
24 
19 
11 
21 
12 
18 
25 
15 
18 
19 
16 
19 
23 
24 
16 
20 
20 
21 
18 
24 
18 
22 
13 
