ITEM: TIMESTEP
770100000
ITEM: NUMBER OF CELLS
100
ITEM: BOX BOUNDS ss rr pp
0 0.001
0 1e-05
-0.5 0.5
ITEM: CELLS c_particles[1] 
21 
14 
24 
21 
21 
25 
16 
17 
16 
22 
24 
20 
20 
20 
21 
22 
23 
15 
22 
18 
21 
22 
19 
13 
12 
15 
21 
21 
17 
22 
23 
20 
21 
16 
18 
16 
18 
20 
17 
24 
28 
20 
20 
17 
28 
20 
14 
25 
23 
22 
20 
21 
15 
16 
19 
30 
18 
28 
16 
17 
24 
15 
24 
17 
18 
20 
17 
25 
20 
22 
21 
17 
15 
23 
22 
22 
16 
22 
24 
28 
24 
17 
21 
31 
16 
15 
21 
17 
16 
20 
12 
26 
16 
23 
21 
28 
20 
12 
16 
21 
