ITEM: TIMESTEP
731000000
ITEM: NUMBER OF CELLS
100
ITEM: BOX BOUNDS ss rr pp
0 0.001
0 1e-05
-0.5 0.5
ITEM: CELLS c_particles[1] 
29 
15 
29 
32 
23 
18 
17 
38 
23 
16 
20 
19 
25 
23 
22 
22 
21 
13 
26 
24 
18 
15 
23 
24 
22 
19 
22 
25 
22 
19 
18 
23 
23 
16 
16 
27 
25 
15 
26 
21 
10 
15 
17 
22 
17 
25 
19 
23 
16 
13 
23 
22 
13 
29 
16 
22 
20 
21 
20 
24 
19 
15 
17 
29 
18 
20 
16 
24 
15 
24 
12 
17 
12 
18 
20 
17 
12 
23 
13 
23 
26 
24 
13 
24 
16 
18 
15 
20 
19 
21 
16 
20 
19 
18 
20 
16 
16 
18 
12 
24 
