ITEM: TIMESTEP
632800000
ITEM: NUMBER OF CELLS
100
ITEM: BOX BOUNDS ss rr pp
0 0.001
0 1e-05
-0.5 0.5
ITEM: CELLS c_particles[1] 
14 
20 
19 
26 
20 
13 
18 
28 
20 
22 
27 
27 
21 
23 
22 
17 
17 
15 
11 
16 
19 
20 
15 
27 
25 
15 
18 
22 
25 
26 
20 
15 
17 
23 
19 
24 
25 
15 
14 
18 
22 
12 
18 
15 
18 
24 
21 
21 
24 
23 
22 
21 
22 
22 
21 
19 
22 
20 
14 
17 
13 
18 
26 
15 
15 
19 
21 
26 
29 
19 
18 
14 
28 
17 
25 
23 
21 
22 
20 
22 
19 
14 
23 
27 
24 
15 
24 
16 
17 
20 
20 
15 
22 
17 
22 
25 
19 
14 
23 
17 
