ITEM: TIMESTEP
465900000
ITEM: NUMBER OF CELLS
100
ITEM: BOX BOUNDS ss rr pp
0 0.001
0 1e-05
-0.5 0.5
ITEM: CELLS c_particles[1] 
27 
23 
17 
14 
24 
23 
17 
25 
14 
17 
17 
22 
21 
19 
18 
17 
20 
23 
18 
25 
22 
21 
21 
15 
16 
23 
19 
17 
16 
19 
22 
28 
23 
17 
20 
18 
16 
20 
17 
16 
23 
20 
25 
22 
21 
21 
23 
22 
27 
24 
13 
24 
21 
17 
17 
19 
14 
17 
21 
27 
19 
23 
17 
24 
21 
17 
17 
16 
18 
25 
21 
30 
18 
21 
17 
24 
27 
10 
18 
20 
16 
21 
15 
20 
27 
16 
16 
23 
15 
22 
19 
30 
18 
14 
17 
23 
17 
15 
27 
21 
