ITEM: TIMESTEP
748200000
ITEM: NUMBER OF CELLS
100
ITEM: BOX BOUNDS ss rr pp
0 0.001
0 1e-05
-0.5 0.5
ITEM: CELLS c_particles[1] 
17 
21 
20 
25 
19 
12 
23 
20 
25 
31 
24 
14 
23 
21 
18 
21 
26 
18 
16 
20 
21 
17 
15 
29 
16 
16 
20 
15 
11 
19 
22 
19 
19 
18 
19 
25 
18 
18 
21 
24 
19 
27 
27 
19 
16 
12 
18 
24 
26 
21 
25 
22 
29 
16 
16 
22 
24 
15 
24 
11 
22 
14 
18 
21 
19 
14 
23 
27 
17 
22 
16 
18 
25 
25 
19 
22 
11 
12 
15 
21 
26 
19 
18 
23 
21 
21 
31 
20 
15 
16 
26 
20 
12 
23 
20 
24 
21 
19 
15 
20 
