ITEM: TIMESTEP
499100000
ITEM: NUMBER OF CELLS
100
ITEM: BOX BOUNDS ss rr pp
0 0.001
0 1e-05
-0.5 0.5
ITEM: CELLS c_particles[1] 
19 
20 
15 
17 
20 
15 
21 
32 
28 
17 
21 
19 
21 
20 
33 
23 
14 
19 
18 
21 
19 
35 
20 
23 
16 
12 
26 
24 
21 
21 
20 
18 
20 
22 
26 
21 
21 
19 
17 
27 
24 
24 
23 
27 
20 
14 
25 
21 
14 
15 
21 
19 
22 
19 
16 
19 
18 
11 
27 
19 
26 
20 
24 
22 
19 
21 
13 
14 
15 
15 
14 
29 
14 
15 
16 
21 
17 
17 
15 
15 
23 
18 
19 
12 
22 
17 
19 
24 
22 
21 
24 
9 
19 
14 
22 
19 
16 
26 
26 
27 
