ITEM: TIMESTEP
448500000
ITEM: NUMBER OF CELLS
100
ITEM: BOX BOUNDS ss rr pp
0 0.001
0 1e-05
-0.5 0.5
ITEM: CELLS c_particles[1] 
25 
19 
28 
21 
15 
21 
19 
13 
20 
23 
15 
18 
16 
14 
27 
15 
18 
25 
27 
16 
25 
31 
19 
25 
21 
15 
13 
22 
17 
22 
25 
20 
18 
15 
23 
17 
20 
17 
21 
19 
24 
19 
19 
20 
29 
14 
16 
18 
22 
29 
22 
18 
21 
11 
24 
19 
19 
23 
25 
20 
26 
21 
19 
20 
15 
14 
22 
13 
15 
19 
25 
19 
17 
10 
30 
17 
20 
24 
21 
21 
23 
13 
17 
26 
21 
16 
23 
31 
14 
22 
18 
15 
26 
26 
17 
19 
16 
20 
20 
17 
