ITEM: TIMESTEP
229100000
ITEM: NUMBER OF CELLS
100
ITEM: BOX BOUNDS ss rr pp
0 0.001
0 1e-05
-0.5 0.5
ITEM: CELLS c_particles[1] 
20 
22 
18 
17 
27 
24 
19 
18 
17 
15 
16 
13 
27 
23 
27 
20 
22 
18 
21 
28 
22 
20 
14 
21 
23 
17 
23 
19 
25 
23 
31 
15 
20 
20 
23 
21 
23 
15 
23 
22 
25 
16 
20 
23 
27 
20 
12 
13 
14 
26 
20 
19 
14 
25 
21 
20 
18 
22 
20 
13 
20 
24 
20 
17 
18 
18 
17 
17 
19 
20 
27 
12 
15 
23 
15 
22 
17 
22 
10 
19 
26 
27 
17 
26 
26 
13 
15 
18 
21 
20 
20 
13 
23 
20 
15 
25 
18 
12 
27 
26 
