ITEM: TIMESTEP
103100000
ITEM: NUMBER OF CELLS
100
ITEM: BOX BOUNDS ss rr pp
0 0.001
0 1e-05
-0.5 0.5
ITEM: CELLS c_particles[1] 
19 
18 
25 
25 
22 
10 
24 
19 
13 
11 
20 
20 
14 
20 
27 
19 
18 
25 
24 
21 
16 
21 
19 
35 
26 
12 
24 
17 
19 
14 
21 
14 
18 
21 
15 
27 
18 
23 
18 
18 
19 
24 
21 
22 
13 
26 
24 
18 
16 
26 
16 
22 
18 
17 
24 
18 
18 
14 
16 
17 
23 
19 
16 
23 
22 
16 
23 
30 
15 
24 
23 
26 
21 
17 
14 
30 
10 
22 
30 
19 
20 
14 
25 
21 
19 
17 
20 
25 
22 
18 
16 
18 
22 
13 
28 
19 
19 
23 
18 
21 
