ITEM: TIMESTEP
747000000
ITEM: NUMBER OF CELLS
100
ITEM: BOX BOUNDS ss rr pp
0 0.001
0 1e-05
-0.5 0.5
ITEM: CELLS c_particles[1] 
27 
21 
25 
21 
19 
27 
18 
21 
17 
22 
18 
19 
24 
21 
18 
27 
29 
24 
20 
19 
18 
16 
22 
12 
16 
26 
19 
17 
20 
15 
13 
18 
22 
19 
20 
27 
19 
26 
22 
19 
24 
15 
18 
16 
28 
22 
21 
24 
24 
14 
18 
18 
26 
27 
13 
18 
17 
22 
14 
19 
17 
22 
19 
15 
22 
21 
20 
20 
16 
14 
21 
16 
19 
18 
16 
15 
14 
23 
24 
31 
20 
16 
23 
19 
28 
21 
23 
19 
18 
21 
15 
11 
19 
23 
24 
20 
21 
18 
19 
18 
