ITEM: TIMESTEP
424100000
ITEM: NUMBER OF CELLS
100
ITEM: BOX BOUNDS ss rr pp
0 0.001
0 1e-05
-0.5 0.5
ITEM: CELLS c_particles[1] 
21 
19 
16 
22 
18 
23 
35 
18 
25 
20 
19 
22 
17 
27 
19 
14 
27 
17 
16 
18 
22 
22 
22 
22 
24 
17 
19 
19 
39 
25 
21 
26 
24 
24 
24 
18 
19 
18 
22 
21 
16 
28 
17 
15 
16 
20 
17 
27 
19 
15 
19 
22 
23 
17 
11 
15 
13 
26 
25 
26 
17 
19 
14 
15 
20 
14 
17 
18 
18 
21 
20 
19 
25 
10 
21 
23 
18 
21 
21 
15 
14 
19 
24 
16 
13 
18 
19 
20 
28 
14 
21 
16 
17 
14 
27 
24 
22 
15 
24 
21 
