ITEM: TIMESTEP
713000000
ITEM: NUMBER OF CELLS
100
ITEM: BOX BOUNDS ss rr pp
0 0.001
0 1e-05
-0.5 0.5
ITEM: CELLS c_particles[1] 
26 
26 
17 
9 
15 
21 
17 
19 
15 
17 
13 
16 
22 
22 
18 
13 
21 
19 
17 
24 
14 
25 
14 
12 
19 
22 
16 
21 
15 
29 
20 
20 
25 
33 
23 
23 
18 
18 
28 
28 
18 
18 
25 
25 
22 
21 
23 
27 
20 
16 
20 
17 
17 
22 
21 
19 
21 
24 
26 
20 
20 
14 
14 
23 
23 
23 
15 
17 
24 
14 
25 
24 
21 
9 
22 
15 
19 
21 
15 
14 
26 
19 
20 
17 
23 
16 
18 
19 
15 
18 
28 
31 
23 
20 
19 
32 
15 
16 
26 
15 
