ITEM: TIMESTEP
62300000
ITEM: NUMBER OF CELLS
100
ITEM: BOX BOUNDS ss rr pp
0 0.001
0 1e-05
-0.5 0.5
ITEM: CELLS c_particles[1] 
20 
18 
20 
16 
30 
23 
25 
26 
15 
18 
20 
19 
21 
14 
18 
25 
25 
25 
14 
14 
21 
25 
24 
25 
19 
20 
27 
19 
19 
16 
25 
22 
13 
20 
22 
22 
18 
26 
29 
25 
26 
16 
18 
17 
12 
19 
22 
16 
23 
19 
28 
21 
16 
10 
16 
18 
21 
14 
18 
21 
17 
15 
19 
21 
18 
19 
23 
18 
28 
14 
24 
9 
26 
21 
20 
16 
13 
16 
24 
15 
30 
21 
23 
12 
11 
16 
13 
24 
22 
22 
27 
20 
19 
19 
21 
26 
19 
14 
26 
25 
