ITEM: TIMESTEP
86200000
ITEM: NUMBER OF CELLS
100
ITEM: BOX BOUNDS ss rr pp
0 0.001
0 1e-05
-0.5 0.5
ITEM: CELLS c_particles[1] 
18 
18 
22 
19 
29 
21 
20 
26 
16 
16 
19 
24 
24 
32 
18 
20 
15 
19 
17 
13 
21 
24 
12 
15 
20 
21 
14 
22 
16 
24 
20 
21 
18 
24 
26 
25 
13 
24 
27 
16 
16 
20 
13 
22 
13 
14 
19 
25 
21 
17 
11 
23 
16 
19 
17 
18 
22 
26 
25 
20 
24 
21 
31 
17 
21 
18 
17 
22 
12 
18 
15 
21 
17 
24 
25 
20 
19 
25 
20 
28 
21 
21 
20 
17 
12 
23 
24 
18 
21 
25 
19 
26 
15 
25 
15 
19 
19 
22 
16 
21 
