ITEM: TIMESTEP
674800000
ITEM: NUMBER OF CELLS
100
ITEM: BOX BOUNDS ss rr pp
0 0.001
0 1e-05
-0.5 0.5
ITEM: CELLS c_particles[1] 
24 
17 
13 
18 
30 
18 
29 
21 
24 
24 
18 
19 
20 
15 
15 
16 
28 
22 
24 
18 
23 
22 
18 
26 
21 
26 
27 
26 
22 
21 
15 
23 
17 
17 
17 
19 
20 
19 
18 
13 
24 
22 
23 
25 
20 
20 
21 
24 
20 
18 
19 
19 
26 
16 
17 
18 
17 
18 
19 
20 
23 
17 
9 
13 
20 
20 
21 
15 
18 
18 
21 
20 
16 
13 
22 
16 
25 
14 
26 
16 
29 
20 
21 
21 
19 
18 
27 
27 
14 
16 
19 
17 
20 
19 
20 
26 
15 
22 
21 
17 
