ITEM: TIMESTEP
704300000
ITEM: NUMBER OF CELLS
100
ITEM: BOX BOUNDS ss rr pp
0 0.001
0 1e-05
-0.5 0.5
ITEM: CELLS c_particles[1] 
22 
22 
21 
18 
18 
20 
20 
19 
14 
15 
18 
22 
22 
14 
20 
33 
19 
23 
14 
16 
18 
32 
20 
22 
20 
22 
17 
18 
27 
16 
15 
19 
24 
11 
25 
19 
15 
24 
23 
24 
15 
15 
17 
27 
32 
22 
22 
21 
19 
21 
25 
21 
24 
16 
18 
18 
20 
22 
19 
24 
13 
25 
20 
16 
20 
27 
22 
18 
18 
18 
17 
14 
20 
21 
18 
25 
19 
30 
17 
13 
28 
10 
18 
26 
20 
17 
21 
16 
18 
21 
19 
24 
18 
18 
23 
21 
14 
18 
19 
21 
