ITEM: TIMESTEP
680100000
ITEM: NUMBER OF CELLS
100
ITEM: BOX BOUNDS ss rr pp
0 0.001
0 1e-05
-0.5 0.5
ITEM: CELLS c_particles[1] 
21 
11 
15 
23 
16 
31 
13 
24 
23 
17 
20 
28 
24 
20 
25 
14 
19 
12 
16 
17 
18 
17 
12 
27 
24 
15 
20 
16 
32 
17 
24 
18 
22 
26 
15 
27 
27 
15 
27 
21 
16 
24 
15 
14 
20 
25 
21 
24 
20 
11 
17 
12 
22 
17 
17 
21 
25 
13 
17 
19 
17 
20 
21 
18 
20 
20 
22 
19 
18 
10 
26 
24 
14 
12 
25 
25 
14 
24 
21 
16 
26 
17 
25 
19 
16 
23 
28 
13 
20 
19 
25 
37 
17 
24 
26 
25 
17 
16 
22 
20 
