ITEM: TIMESTEP
68700000
ITEM: NUMBER OF CELLS
100
ITEM: BOX BOUNDS ss rr pp
0 0.001
0 1e-05
-0.5 0.5
ITEM: CELLS c_particles[1] 
17 
18 
26 
20 
24 
19 
16 
9 
12 
23 
22 
19 
30 
15 
20 
22 
23 
19 
24 
18 
18 
27 
21 
24 
22 
17 
20 
22 
21 
21 
24 
20 
20 
15 
14 
21 
20 
25 
18 
19 
19 
18 
26 
22 
21 
16 
18 
20 
14 
19 
18 
26 
17 
19 
22 
21 
16 
17 
24 
15 
15 
15 
22 
21 
22 
9 
21 
17 
20 
30 
23 
20 
30 
13 
19 
21 
21 
18 
21 
20 
26 
16 
27 
18 
14 
29 
24 
12 
19 
26 
28 
13 
21 
21 
16 
26 
21 
16 
15 
21 
