ITEM: TIMESTEP
413100000
ITEM: NUMBER OF CELLS
100
ITEM: BOX BOUNDS ss rr pp
0 0.001
0 1e-05
-0.5 0.5
ITEM: CELLS c_particles[1] 
21 
28 
13 
20 
30 
25 
24 
15 
17 
20 
18 
22 
22 
21 
16 
22 
19 
19 
19 
21 
20 
25 
20 
19 
15 
16 
28 
16 
22 
16 
19 
17 
15 
15 
31 
21 
21 
14 
19 
15 
13 
21 
15 
24 
22 
20 
22 
22 
16 
28 
24 
23 
17 
19 
18 
21 
25 
24 
15 
28 
20 
25 
20 
14 
20 
27 
15 
13 
21 
24 
29 
20 
18 
18 
22 
17 
23 
20 
20 
12 
22 
24 
25 
15 
17 
19 
12 
23 
19 
13 
15 
24 
23 
23 
15 
22 
20 
18 
21 
19 
