ITEM: TIMESTEP
225000000
ITEM: NUMBER OF CELLS
100
ITEM: BOX BOUNDS ss rr pp
0 0.001
0 1e-05
-0.5 0.5
ITEM: CELLS c_particles[1] 
25 
22 
20 
18 
24 
18 
20 
23 
22 
25 
18 
11 
23 
16 
16 
12 
17 
13 
22 
27 
28 
26 
18 
28 
20 
23 
20 
26 
23 
17 
23 
19 
17 
28 
21 
24 
16 
17 
23 
21 
17 
20 
20 
18 
21 
16 
32 
15 
16 
28 
15 
19 
18 
20 
23 
16 
18 
18 
20 
14 
31 
18 
16 
22 
20 
16 
22 
16 
19 
12 
27 
19 
16 
17 
18 
15 
19 
15 
15 
16 
24 
20 
13 
24 
29 
25 
21 
28 
19 
30 
20 
18 
19 
15 
20 
19 
22 
20 
13 
18 
