ITEM: TIMESTEP
552100000
ITEM: NUMBER OF CELLS
100
ITEM: BOX BOUNDS ss rr pp
0 0.001
0 1e-05
-0.5 0.5
ITEM: CELLS c_particles[1] 
17 
17 
29 
20 
21 
23 
17 
17 
22 
17 
24 
22 
18 
17 
22 
15 
22 
23 
22 
27 
24 
18 
10 
20 
19 
22 
17 
23 
18 
19 
19 
15 
16 
36 
17 
25 
18 
17 
26 
25 
15 
16 
19 
23 
17 
20 
20 
25 
20 
17 
23 
22 
14 
16 
22 
26 
17 
21 
19 
25 
23 
17 
19 
20 
18 
25 
20 
20 
23 
19 
15 
20 
19 
14 
30 
21 
19 
19 
14 
20 
27 
25 
15 
26 
11 
17 
25 
12 
17 
22 
24 
19 
17 
16 
20 
20 
25 
20 
13 
21 
