ITEM: TIMESTEP
312100000
ITEM: NUMBER OF CELLS
100
ITEM: BOX BOUNDS ss rr pp
0 0.001
0 1e-05
-0.5 0.5
ITEM: CELLS c_particles[1] 
20 
20 
20 
15 
27 
19 
29 
24 
19 
36 
30 
25 
14 
26 
17 
24 
19 
16 
15 
22 
16 
23 
16 
15 
23 
18 
16 
16 
16 
16 
19 
25 
19 
22 
21 
23 
14 
13 
15 
21 
15 
25 
17 
16 
15 
15 
20 
14 
20 
16 
17 
23 
21 
21 
32 
16 
16 
28 
10 
21 
24 
12 
28 
22 
21 
19 
22 
21 
18 
13 
24 
13 
19 
14 
18 
30 
19 
27 
27 
29 
20 
19 
26 
27 
13 
16 
18 
22 
15 
17 
27 
27 
16 
26 
16 
19 
22 
20 
16 
16 
