ITEM: TIMESTEP
373900000
ITEM: NUMBER OF CELLS
100
ITEM: BOX BOUNDS ss rr pp
0 0.001
0 1e-05
-0.5 0.5
ITEM: CELLS c_particles[1] 
22 
20 
30 
20 
17 
17 
22 
18 
21 
21 
18 
24 
25 
19 
23 
30 
21 
29 
17 
10 
15 
29 
17 
31 
14 
17 
26 
19 
17 
20 
13 
21 
11 
17 
19 
19 
21 
22 
21 
20 
27 
23 
20 
15 
22 
22 
22 
22 
9 
16 
20 
22 
19 
26 
20 
21 
12 
24 
21 
18 
25 
15 
22 
21 
23 
23 
21 
19 
18 
20 
24 
20 
21 
20 
18 
19 
23 
20 
16 
21 
10 
13 
22 
17 
19 
22 
23 
17 
21 
16 
21 
16 
27 
21 
19 
16 
12 
16 
26 
23 
