ITEM: TIMESTEP
221500000
ITEM: NUMBER OF CELLS
100
ITEM: BOX BOUNDS ss rr pp
0 0.001
0 1e-05
-0.5 0.5
ITEM: CELLS c_particles[1] 
20 
18 
29 
26 
20 
19 
28 
18 
21 
17 
28 
21 
22 
17 
24 
30 
22 
13 
22 
19 
16 
22 
15 
15 
24 
19 
21 
18 
15 
21 
17 
23 
24 
19 
20 
21 
18 
27 
21 
20 
11 
18 
22 
18 
16 
17 
20 
17 
18 
23 
24 
24 
24 
21 
23 
25 
15 
22 
16 
25 
16 
26 
17 
22 
23 
20 
26 
18 
23 
18 
24 
23 
22 
14 
17 
16 
17 
17 
23 
6 
18 
20 
21 
12 
21 
18 
23 
24 
21 
20 
17 
15 
16 
18 
19 
16 
21 
18 
25 
20 
