ITEM: TIMESTEP
563600000
ITEM: NUMBER OF CELLS
100
ITEM: BOX BOUNDS ss rr pp
0 0.001
0 1e-05
-0.5 0.5
ITEM: CELLS c_particles[1] 
17 
19 
19 
26 
19 
20 
19 
21 
19 
15 
20 
24 
13 
14 
22 
21 
24 
23 
21 
19 
11 
30 
17 
27 
19 
19 
18 
22 
17 
17 
26 
26 
13 
22 
25 
18 
19 
27 
17 
24 
16 
15 
24 
24 
21 
18 
21 
29 
23 
15 
21 
15 
18 
21 
22 
17 
22 
19 
21 
24 
18 
18 
22 
18 
12 
13 
20 
20 
26 
23 
21 
19 
17 
21 
25 
14 
30 
28 
19 
13 
11 
16 
11 
13 
27 
30 
20 
19 
25 
25 
19 
22 
29 
23 
11 
21 
11 
13 
17 
25 
