ITEM: TIMESTEP
337200000
ITEM: NUMBER OF CELLS
100
ITEM: BOX BOUNDS ss rr pp
0 0.001
0 1e-05
-0.5 0.5
ITEM: CELLS c_particles[1] 
16 
16 
16 
18 
25 
22 
20 
24 
21 
21 
13 
30 
16 
21 
12 
15 
23 
22 
20 
22 
23 
17 
15 
17 
24 
21 
18 
22 
21 
24 
23 
16 
21 
11 
20 
35 
12 
20 
21 
16 
14 
23 
13 
18 
23 
19 
25 
11 
26 
24 
25 
22 
22 
15 
28 
24 
26 
30 
23 
30 
13 
24 
20 
21 
13 
15 
22 
22 
18 
20 
18 
14 
11 
24 
16 
25 
20 
24 
17 
22 
21 
20 
23 
25 
20 
13 
16 
19 
21 
15 
13 
18 
19 
27 
19 
21 
14 
24 
24 
18 
