ITEM: TIMESTEP
31200000
ITEM: NUMBER OF CELLS
100
ITEM: BOX BOUNDS ss rr pp
0 0.001
0 1e-05
-0.5 0.5
ITEM: CELLS c_particles[1] 
17 
17 
19 
15 
28 
23 
21 
25 
24 
15 
30 
20 
14 
22 
25 
24 
20 
20 
23 
15 
17 
18 
13 
18 
13 
30 
25 
16 
14 
29 
30 
19 
19 
20 
12 
19 
26 
15 
16 
25 
20 
19 
28 
17 
25 
18 
15 
18 
17 
23 
19 
18 
17 
17 
26 
20 
17 
17 
22 
15 
19 
23 
21 
15 
15 
19 
19 
24 
12 
20 
26 
15 
17 
20 
16 
13 
15 
27 
28 
18 
20 
29 
19 
22 
23 
9 
23 
22 
12 
17 
26 
23 
27 
22 
18 
17 
25 
22 
26 
17 
