ITEM: TIMESTEP
656300000
ITEM: NUMBER OF CELLS
100
ITEM: BOX BOUNDS ss rr pp
0 0.001
0 1e-05
-0.5 0.5
ITEM: CELLS c_particles[1] 
31 
19 
22 
24 
21 
13 
19 
15 
24 
23 
14 
19 
28 
22 
17 
20 
20 
17 
20 
13 
17 
23 
17 
25 
23 
18 
22 
21 
12 
16 
20 
18 
20 
10 
11 
23 
23 
12 
15 
23 
27 
21 
21 
21 
25 
20 
17 
20 
20 
18 
23 
27 
17 
22 
17 
19 
20 
19 
26 
12 
13 
18 
14 
16 
22 
22 
21 
21 
22 
13 
17 
24 
18 
18 
19 
21 
24 
23 
27 
24 
22 
22 
23 
24 
18 
16 
18 
31 
24 
24 
26 
27 
21 
16 
14 
17 
19 
23 
17 
19 
