ITEM: TIMESTEP
377200000
ITEM: NUMBER OF CELLS
100
ITEM: BOX BOUNDS ss rr pp
0 0.001
0 1e-05
-0.5 0.5
ITEM: CELLS f_temp1[*] 
343.393 
344.35 
344.048 
341.107 
343.98 
346.005 
341.099 
343.533 
344.955 
344.462 
340.948 
344.806 
343.634 
346.745 
341.792 
347.102 
343.546 
341.265 
346.044 
345.887 
344.476 
346.098 
343.962 
344.52 
344.587 
345.208 
344.577 
344.268 
347.039 
346.548 
344.9 
345.944 
347.293 
347.161 
345.513 
346.03 
342.957 
344.632 
346.842 
341.846 
343.386 
347.825 
344.926 
346.954 
345.312 
343.097 
345.778 
350.46 
348.444 
344.784 
347.736 
347.097 
349.355 
343.543 
351.477 
344.401 
345.706 
345.835 
350.66 
346.86 
346.541 
346.959 
350.774 
348.099 
348.297 
347.853 
348.618 
344.197 
345.736 
353.752 
350.914 
351.002 
349.81 
351.809 
349.565 
352.561 
347.658 
349.691 
352.611 
351.06 
347.198 
352.925 
350.772 
348.146 
352.878 
357.967 
351.857 
353.467 
357.994 
347.304 
351.545 
352.42 
354.231 
353.025 
353.578 
356.568 
355.085 
355.755 
354.259 
357.418 
