ITEM: TIMESTEP
290900000
ITEM: NUMBER OF CELLS
100
ITEM: BOX BOUNDS ss rr pp
0 0.001
0 1e-05
-0.5 0.5
ITEM: CELLS f_temp1[*] 
337.632 
341.825 
343.401 
339.457 
340.976 
338.809 
343.581 
344.488 
341.421 
342.631 
344.656 
340.217 
341.885 
343.964 
342.979 
338.756 
342.141 
342.177 
340.052 
341.584 
338.93 
343.649 
342.344 
340.789 
343.901 
341.304 
342.219 
345.597 
341.177 
344.17 
343.677 
344.652 
343.671 
345.119 
343.932 
344.868 
341.268 
341.531 
343.736 
344.835 
344.054 
345.831 
344.983 
341.462 
344.321 
345.606 
344.304 
347.165 
346.119 
344.044 
345.546 
345.445 
346.959 
348.751 
348.232 
350.441 
346.794 
349.534 
349.574 
343.934 
350.443 
347.067 
348.803 
342.952 
351.483 
349.487 
347.779 
346.468 
346.276 
347.053 
346.958 
347.381 
346.387 
350.467 
353.458 
348.179 
350.816 
347.73 
346.048 
352.861 
349.853 
348.144 
347.82 
351.153 
355.052 
352.441 
350.391 
351.658 
352.994 
348.156 
351.868 
347.493 
349.942 
354.015 
351.308 
349.669 
351.569 
352.938 
352.35 
353.018 
