ITEM: TIMESTEP
479900000
ITEM: NUMBER OF CELLS
100
ITEM: BOX BOUNDS ss rr pp
0 0.001
0 1e-05
-0.5 0.5
ITEM: CELLS f_temp1[*] 
339.574 
342.413 
339.417 
340.973 
344.435 
340.68 
341.051 
343.703 
339.145 
345.225 
340.773 
338.31 
343.391 
342.558 
340.831 
341.538 
346.459 
344.149 
340.415 
343.049 
342.98 
342.359 
343.933 
341.698 
343.469 
339.651 
346.589 
345.144 
344.152 
340.8 
345.895 
348.429 
341.128 
343.305 
344.631 
341.451 
344.978 
341.79 
346.588 
345.604 
345.052 
342.39 
345.829 
346.633 
346.216 
348.483 
348.344 
343.132 
347.964 
346.616 
346.357 
348.322 
343.205 
346.927 
347.007 
346.262 
344.491 
342.427 
344.299 
345.024 
348.375 
347.393 
351.516 
349.536 
350.251 
348.965 
352.047 
347.208 
348.818 
346.977 
347.093 
348.459 
347.839 
353.118 
347.947 
350.134 
355.189 
349.929 
351.504 
350.383 
346.937 
349.488 
350.595 
349.237 
349.548 
351.269 
352.714 
351.301 
351.258 
348.846 
348.681 
354.42 
354.669 
349.991 
354.113 
357.754 
349.151 
354.36 
351.987 
351.89 
