ITEM: TIMESTEP
22000000
ITEM: NUMBER OF CELLS
100
ITEM: BOX BOUNDS ss rr pp
0 0.001
0 1e-05
-0.5 0.5
ITEM: CELLS f_temp1[*] 
338.185 
338.371 
342.208 
338.512 
337.374 
338.207 
340.367 
343.42 
340.87 
342.098 
341.12 
339.665 
339.98 
343.232 
342.695 
343.41 
341.526 
343.364 
342.237 
341.851 
343.881 
341.092 
339.977 
345.693 
342.911 
341.299 
347.061 
341.212 
344.979 
340.383 
344.835 
343.925 
344.199 
345.376 
343.828 
346.921 
342.194 
343.947 
345.38 
346.871 
346.277 
345.38 
342.574 
344.517 
346.272 
348.382 
348.101 
348.187 
349.091 
347.783 
346.229 
346.185 
347.506 
340.574 
345.843 
350.898 
346.641 
346.843 
347.123 
346.016 
347.852 
351.349 
349.345 
348.624 
347.01 
349.281 
346.7 
354.114 
349.173 
350.802 
347.615 
346.643 
348.799 
351.605 
351.979 
350.512 
351.707 
348.237 
353.88 
351.182 
348.079 
350.917 
353.129 
350.637 
354.55 
351.913 
349.599 
349.717 
355.718 
353.32 
352.904 
355.142 
357.969 
352.428 
353.115 
350.903 
349.353 
354.977 
354.316 
351.25 
