ITEM: TIMESTEP
217600000
ITEM: NUMBER OF CELLS
100
ITEM: BOX BOUNDS ss rr pp
0 0.001
0 1e-05
-0.5 0.5
ITEM: CELLS f_temp1[*] 
339.143 
339.955 
339.613 
342.272 
336.856 
339.661 
338.156 
338.62 
337.595 
335.446 
342.372 
335.162 
342.903 
343.513 
343.604 
338.54 
344.348 
342.396 
341.03 
344.049 
342.763 
344.028 
343.901 
343.507 
342.854 
344.237 
341.925 
343.484 
340.044 
345.374 
342.443 
342.199 
345.457 
345.043 
346.01 
341.588 
346.839 
343.73 
340.39 
342.804 
345.585 
343.01 
342.641 
345.064 
346.763 
346.217 
344.464 
346.182 
345.443 
347.95 
345.401 
345.898 
344.392 
345.79 
347.215 
347.619 
348.26 
349.666 
349.42 
347.87 
344.43 
346.019 
347.445 
347.848 
347.918 
345.615 
345.566 
346.4 
345.515 
348.774 
346.891 
350.511 
347.533 
345.793 
346.483 
352.486 
349.947 
347.054 
350.18 
349.037 
349.709 
346.514 
347.362 
351.967 
350.708 
349.805 
350.901 
353.65 
346.648 
351.177 
352.115 
352.663 
352.983 
351.145 
353.506 
353.76 
351.458 
351.783 
353.231 
352.71 
