ITEM: TIMESTEP
121300000
ITEM: NUMBER OF CELLS
100
ITEM: BOX BOUNDS ss rr pp
0 0.001
0 1e-05
-0.5 0.5
ITEM: CELLS f_temp1[*] 
340.276 
341.104 
340.627 
341.419 
345.417 
342.443 
342.458 
339.031 
339.312 
342.515 
337.903 
342.189 
341.868 
338.834 
340.028 
341.721 
341.707 
343.846 
343.824 
343.125 
342.28 
342.436 
337.832 
344.032 
341.526 
344.661 
342.272 
343.664 
344.509 
341.311 
344.026 
344.189 
343.801 
347.107 
344.084 
345.067 
346.197 
348.382 
348.02 
345.731 
345.343 
345.256 
348.208 
342.889 
341.884 
345.119 
348.729 
345.025 
347.488 
347.303 
347.195 
346.261 
346.368 
349.68 
347.788 
346.86 
347.907 
349.587 
348.081 
349.43 
343.975 
350.64 
346.979 
345.856 
348.433 
350.351 
350.205 
345.853 
346.119 
347.905 
346.513 
349.471 
347.01 
346.9 
348.663 
350.597 
350.246 
357.151 
347.996 
350.822 
353.179 
349.778 
352.072 
348.829 
350.873 
353.281 
353.171 
351.525 
352.985 
352.265 
352.83 
351.223 
352.003 
354.766 
352.464 
351.693 
353.168 
354.779 
352.909 
353.401 
