ITEM: TIMESTEP
82300000
ITEM: NUMBER OF CELLS
100
ITEM: BOX BOUNDS ss rr pp
0 0.001
0 1e-05
-0.5 0.5
ITEM: CELLS f_temp1[*] 
340.702 
341.361 
340.499 
343.645 
340.974 
339.693 
341.358 
339.5 
342.072 
345.149 
341.168 
338.523 
340.533 
341.495 
343.115 
341.386 
343.39 
343.59 
343.742 
341.878 
340.832 
340.831 
342.739 
346.233 
343.325 
344.917 
343.447 
346.084 
347.472 
340.218 
345.659 
342.11 
342.829 
342.734 
343.057 
343.653 
345.58 
347.742 
345.851 
345.923 
345.996 
344.612 
344.452 
346.869 
345.361 
341.285 
345.455 
347.717 
345.525 
344.397 
345.04 
343.479 
347.688 
349.48 
345.647 
349.299 
347.573 
346.087 
345.353 
349.681 
345.317 
345.017 
348.455 
350.183 
345.927 
345.881 
351.892 
348.733 
348.393 
343.585 
348.788 
347.031 
347.729 
348.507 
345.606 
347.816 
349.93 
348.562 
349.316 
350.118 
352.405 
356.181 
350.411 
349.456 
349.944 
353.359 
349.602 
349.924 
350.747 
350.934 
351.998 
351.051 
355.383 
352.308 
352.555 
351.625 
356.36 
352.334 
351.194 
355.434 
