ITEM: TIMESTEP
446300000
ITEM: NUMBER OF CELLS
100
ITEM: BOX BOUNDS ss rr pp
0 0.001
0 1e-05
-0.5 0.5
ITEM: CELLS f_temp1[*] 
337.56 
339.424 
340.928 
337.85 
343.831 
340.621 
336.884 
337.445 
340.345 
340.078 
340.506 
340.448 
340.447 
344.649 
341.475 
341.848 
340.904 
341.381 
343.887 
340.254 
345.296 
343.346 
340.785 
341.997 
341.218 
342.188 
345.364 
343.857 
344.804 
343.914 
345.635 
341.309 
343.636 
344.18 
345.438 
346.346 
344.453 
345.372 
345.729 
344.457 
344.664 
342.464 
341.324 
347.118 
346.108 
346.703 
345.677 
347.3 
346.206 
347.025 
346.15 
345.273 
345.732 
346.927 
345.434 
345.798 
346.22 
349.112 
347.51 
347.132 
348.416 
351.28 
345.606 
343.61 
348.221 
350.256 
347.576 
352.995 
350.199 
348.883 
348.025 
349.149 
349.716 
347.295 
351.45 
350.453 
350.014 
347.812 
350.229 
351.913 
351.601 
347.055 
352.342 
350.351 
352.332 
350.741 
350.71 
353.78 
351.138 
352.537 
353.962 
347.452 
350.82 
352.526 
356.662 
353.381 
352.223 
355.042 
352.529 
356.913 
