ITEM: TIMESTEP
617500000
ITEM: NUMBER OF CELLS
100
ITEM: BOX BOUNDS ss rr pp
0 0.001
0 1e-05
-0.5 0.5
ITEM: CELLS f_temp1[*] 
340.007 
338.587 
337.675 
340.193 
339.811 
340.931 
341.371 
338.193 
343.253 
343.492 
339.694 
340.085 
341.018 
340.857 
343.957 
345.13 
342.899 
342.07 
344.678 
341.983 
343.948 
345.129 
343.658 
345.842 
341.611 
343.795 
344.867 
342.538 
342.449 
342.277 
342.442 
344.213 
344.194 
345.57 
343.103 
342.938 
342.289 
342.032 
342.234 
345.318 
345.245 
348.544 
343.762 
343.852 
347.12 
348.519 
345.562 
344.398 
345.97 
347.049 
346.793 
348.145 
344.121 
349.002 
344.701 
346.755 
344.953 
351.197 
347.577 
346.117 
348.927 
345.086 
349.445 
346.196 
345.351 
345.793 
349.305 
345.216 
347.566 
350.227 
350.311 
350.694 
349.316 
351.009 
347.422 
351.589 
351.842 
349.697 
347.566 
348.832 
347.63 
349.537 
353.127 
352.044 
351.43 
349.689 
351.805 
351.198 
349.536 
349.316 
353.411 
348.394 
350.906 
351.888 
352.554 
350.571 
352.077 
353.895 
353.488 
352.576 
