ITEM: TIMESTEP
104600000
ITEM: NUMBER OF CELLS
100
ITEM: BOX BOUNDS ss rr pp
0 0.001
0 1e-05
-0.5 0.5
ITEM: CELLS f_temp1[*] 
339.535 
340.18 
340.396 
339.202 
336.326 
340.731 
338.098 
338.917 
338.016 
342.862 
340.461 
341.639 
340.527 
341.393 
343.415 
338.026 
341.13 
345.67 
344.252 
341.593 
342.958 
341.849 
341.403 
342.504 
346.245 
343.611 
342.674 
344.792 
342.927 
346.283 
343.973 
346.464 
348.385 
345.705 
345.914 
346.909 
346.866 
343.768 
344.302 
345.411 
348.977 
345.159 
345.94 
346.142 
345.83 
343.939 
344.532 
347.335 
349.162 
345.716 
348.573 
343.679 
351.362 
347.52 
346.971 
345.382 
344.232 
347.606 
347.645 
350.124 
348.53 
348.468 
349.493 
350.212 
348.875 
349.181 
352.131 
350.559 
346.333 
346.766 
347.695 
348.98 
349.152 
352.86 
350.993 
350.703 
349.89 
352.022 
347.308 
347.544 
346.586 
348.306 
350.429 
351.444 
348.109 
349.201 
350.963 
352.833 
347.526 
348.816 
351.673 
352.796 
351.84 
353.039 
353.365 
349.794 
351.01 
353.907 
353.379 
351.237 
