ITEM: TIMESTEP
711000000
ITEM: NUMBER OF CELLS
100
ITEM: BOX BOUNDS ss rr pp
0 0.001
0 1e-05
-0.5 0.5
ITEM: CELLS f_temp1[*] 
340.043 
340.091 
340.607 
342.125 
344.475 
339.509 
343.1 
342.753 
344.644 
342.449 
341.684 
343.742 
342.025 
337.807 
342.882 
344.33 
338.788 
337.722 
343.064 
341.696 
341.661 
339.901 
341.437 
342.198 
346.688 
347.241 
344.041 
344.473 
344.243 
342.342 
346.151 
345.226 
344.259 
345.049 
344.449 
344.063 
343.032 
346.32 
345.608 
347.76 
343.532 
344.223 
343.321 
345.991 
345.414 
349.269 
345.289 
348.587 
349.717 
349.002 
346.321 
346.361 
348.012 
347.534 
343.567 
349.673 
350.994 
346.439 
347.972 
353.963 
348.619 
347.804 
346.169 
348.131 
346.794 
347.168 
350.522 
345.227 
347.006 
347.79 
349.556 
350.017 
347.695 
350.116 
350.595 
352.443 
353.714 
351.33 
347.731 
351.187 
351.325 
352.329 
353.198 
350.848 
350.201 
350.311 
351.801 
349.848 
352.475 
352.808 
351.943 
353.074 
357.464 
353.928 
350.496 
352.911 
355.54 
354.07 
345.784 
351.82 
