ITEM: TIMESTEP
728400000
ITEM: NUMBER OF CELLS
100
ITEM: BOX BOUNDS ss rr pp
0 0.001
0 1e-05
-0.5 0.5
ITEM: CELLS f_temp1[*] 
339.018 
339.766 
339.959 
340.299 
337.934 
340.709 
342.263 
338.659 
340.641 
341.415 
343.202 
344.497 
344.026 
341.728 
344.024 
343.002 
340.974 
338.58 
339.58 
344.815 
341.983 
341.618 
342.451 
344.231 
347.197 
340.307 
344.433 
345.394 
340.054 
345.786 
344.695 
341.144 
342.876 
342.49 
345.196 
343.029 
347.604 
346.918 
344.09 
348.274 
345.058 
347.778 
344.5 
345.106 
344.442 
347.652 
347.792 
348.52 
345.751 
344.655 
349.346 
347.085 
350.332 
344.236 
350.973 
350.022 
349.738 
348.387 
349.392 
351.25 
344.976 
349.713 
349.017 
350.89 
352.992 
351.683 
350.07 
349.966 
351.776 
344.678 
352.089 
349.752 
348.454 
348.013 
350.174 
351.095 
348.992 
350.042 
347.314 
353.591 
347.898 
349.307 
350.303 
351.274 
352.94 
352.593 
349.579 
348.584 
349.835 
352.375 
351.368 
352.071 
353.135 
349.554 
352.72 
351.196 
354.942 
351.727 
353.889 
359.805 
