ITEM: TIMESTEP
573800000
ITEM: NUMBER OF CELLS
100
ITEM: BOX BOUNDS ss rr pp
0 0.001
0 1e-05
-0.5 0.5
ITEM: CELLS f_temp1[*] 
337.906 
341.915 
340.208 
340.615 
342.893 
341.589 
343.9 
340.094 
340.608 
340.03 
344.799 
343.377 
344.329 
342.819 
345.727 
344.64 
344.161 
342.194 
345.405 
344.311 
341.863 
341.862 
350.515 
342.097 
343.84 
344.686 
343.704 
343.277 
346.657 
343.948 
344.883 
341.816 
344.243 
345.118 
345.296 
345.905 
345.701 
348.012 
347.548 
348.251 
349.647 
344.96 
346.366 
350.158 
346.65 
349.27 
347.245 
350.608 
346.865 
347.113 
349.321 
345.614 
348.078 
349.067 
345.215 
345.384 
345.786 
348.051 
349.035 
346.565 
349.377 
349.379 
350.82 
349.578 
350.303 
349.13 
349.075 
349.045 
349.285 
351.447 
351.947 
350.899 
350.008 
351.256 
353.508 
353.385 
353.104 
351.654 
351.762 
355.098 
348.615 
353.625 
351.621 
352.606 
351.453 
347.568 
348.446 
351.347 
350.426 
351.058 
354.422 
353.716 
352.986 
353.092 
352.517 
351.068 
356.964 
356.001 
353.967 
354.621 
