ITEM: TIMESTEP
291600000
ITEM: NUMBER OF CELLS
100
ITEM: BOX BOUNDS ss rr pp
0 0.001
0 1e-05
-0.5 0.5
ITEM: CELLS f_temp1[*] 
339.45 
339.07 
345.526 
338.195 
339.253 
338.524 
339.854 
339.216 
340.824 
340.235 
341.253 
341.372 
339.994 
342.569 
340.502 
341.203 
343.078 
341.144 
342.578 
346.269 
345.35 
346.394 
344.04 
344.491 
340.863 
344.178 
341.324 
344.228 
345.48 
344.522 
343.901 
346.531 
347.667 
346.122 
346.532 
346.349 
347.435 
344.241 
348.792 
348.243 
346.196 
347.107 
349.858 
344.126 
344.056 
346.511 
348.136 
347.141 
347.409 
349.594 
345.271 
346.186 
343.966 
347.383 
350.007 
349.949 
345.541 
347.66 
347.209 
348.465 
347.271 
347.327 
352.684 
346.685 
349.643 
350.923 
351.269 
348.87 
348.833 
346.895 
351.371 
349.472 
348.279 
349.956 
351.806 
350.263 
351.402 
349.242 
350.843 
351.661 
352.748 
347.807 
354.512 
349.867 
352.423 
347.745 
348.923 
350.156 
351.621 
348.815 
350.783 
347.816 
351.507 
353.379 
352.044 
349.455 
349.844 
349.45 
353.87 
356.049 
