ITEM: TIMESTEP
153300000
ITEM: NUMBER OF CELLS
100
ITEM: BOX BOUNDS ss rr pp
0 0.001
0 1e-05
-0.5 0.5
ITEM: CELLS f_temp1[*] 
338.542 
342.086 
337.015 
340.099 
345.297 
340.99 
343.49 
340.877 
342.288 
340.18 
340.748 
341.018 
339.69 
336.415 
342.48 
341.403 
344.89 
343.877 
344.044 
340.987 
344.044 
345.9 
342.668 
340.509 
342.618 
339.106 
342.679 
344.213 
342.263 
344.501 
346.297 
343.753 
342.076 
342.103 
344.045 
345.755 
341.534 
342.931 
344.362 
344.539 
346.135 
345.496 
344.501 
344.836 
345.25 
345.898 
348.601 
347.939 
346.124 
347.155 
344.928 
346.819 
344.942 
346.088 
348.542 
346.473 
343.066 
343.605 
349.579 
349.048 
347.815 
342.544 
346.374 
348.567 
346.922 
350.027 
342.795 
345.026 
345.97 
348.555 
342.73 
342.755 
349.999 
348.8 
349.63 
349.742 
349.057 
346.861 
346.662 
345.275 
349.623 
346.192 
351.114 
349.496 
348.973 
350.735 
347.909 
351.752 
348.083 
352.939 
347.601 
350.234 
350.531 
350.346 
351.593 
351.065 
350.656 
349.003 
350.103 
348.255 
