ITEM: TIMESTEP
628400000
ITEM: NUMBER OF CELLS
100
ITEM: BOX BOUNDS ss rr pp
0 0.001
0 1e-05
-0.5 0.5
ITEM: CELLS f_temp1[*] 
339.52 
340.999 
340.539 
340.815 
343.871 
338.365 
340.578 
339.848 
338.706 
341.211 
342.457 
341.952 
339.021 
342.348 
341.41 
343 
344.088 
345.31 
342.679 
342.5 
339.693 
339.863 
344.701 
342.48 
344.575 
344.5 
336.34 
341.408 
342.757 
343.823 
343.697 
345.946 
342.01 
344.504 
342.528 
347.318 
345.961 
345.295 
344.075 
342.396 
345.806 
343.68 
343.689 
344.455 
347.228 
343.222 
345.922 
346.005 
347.847 
351.631 
345.618 
350.919 
347.091 
344.253 
343.588 
350.298 
350.541 
347.628 
346.563 
346.231 
349.301 
346.26 
347.961 
348.874 
349.803 
347.088 
346.81 
347.293 
348.716 
348.794 
348.773 
352.164 
353.388 
350.24 
355.637 
353.837 
351.942 
348.959 
349.084 
350.502 
353.74 
350.611 
352.551 
349.313 
351.743 
352.237 
349.782 
347.186 
349.728 
347.065 
350.956 
348.608 
347.699 
352.725 
349.614 
352.018 
350.665 
356.696 
353.139 
355.294 
