ITEM: TIMESTEP
29000000
ITEM: NUMBER OF CELLS
100
ITEM: BOX BOUNDS ss rr pp
0 0.001
0 1e-05
-0.5 0.5
ITEM: CELLS f_temp1[*] 
338.897 
339.228 
340.151 
338.98 
341.072 
342.065 
342.233 
339.305 
341.456 
340.676 
340.661 
342.343 
342.113 
342.802 
340.81 
342.655 
342.429 
341.599 
340.553 
342.451 
340.84 
342.735 
346.071 
343.193 
343.746 
342.007 
343.54 
345.85 
342.112 
345.891 
348.017 
348.795 
341.682 
345.023 
348.216 
342.82 
342.534 
350.007 
345.265 
344.328 
344.786 
348.142 
347.73 
347.538 
348.531 
343.687 
343.736 
342.559 
347.124 
348.283 
344.907 
346.479 
345.593 
349.979 
344.792 
349.249 
350.109 
347.83 
349.979 
347.811 
349.654 
350.567 
347.552 
346.385 
350.013 
349.108 
353.315 
349.857 
352.138 
349.273 
350.271 
349.826 
353.593 
346.647 
347.077 
348.013 
349.798 
348.101 
348.557 
348.394 
347.733 
348.967 
351.739 
350.59 
353.931 
350.582 
349.973 
350.793 
354.612 
352.46 
348.63 
349.691 
351.712 
351.304 
353.925 
351.968 
351.877 
355.997 
350.914 
352.238 
