ITEM: TIMESTEP
628100000
ITEM: NUMBER OF CELLS
100
ITEM: BOX BOUNDS ss rr pp
0 0.001
0 1e-05
-0.5 0.5
ITEM: CELLS f_temp1[*] 
338.557 
339.718 
339.205 
340.273 
341.58 
340.612 
338.51 
339.984 
345.537 
342.745 
341.939 
342.574 
344.327 
346.318 
339.775 
341.526 
340.105 
343.856 
345.981 
347.686 
345.373 
343.932 
345.704 
344.053 
345.118 
346.961 
340.954 
347.247 
342.648 
345.463 
345.258 
347.801 
349.195 
346.123 
346.498 
342.411 
345.767 
347.879 
342.819 
347.393 
342.981 
347.854 
345.797 
348.693 
346.462 
347.351 
350.575 
348.696 
349.156 
348.136 
348.221 
347.295 
346.959 
348.805 
347.446 
344.9 
348.925 
350.197 
351.035 
345.103 
348.666 
349.542 
355.237 
347.873 
354.969 
351.874 
349.69 
349.267 
350.091 
352.134 
354.931 
350.7 
347.054 
347.176 
350.413 
353.547 
354.499 
354.039 
354.377 
350.723 
352.288 
350.847 
348.083 
349.186 
353.636 
353.573 
354.059 
354.047 
352.991 
350.601 
353.801 
352.283 
355.914 
349.987 
349.307 
348.905 
351.722 
351.166 
351.886 
352.671 
