ITEM: TIMESTEP
654400000
ITEM: NUMBER OF CELLS
100
ITEM: BOX BOUNDS ss rr pp
0 0.001
0 1e-05
-0.5 0.5
ITEM: CELLS f_temp1[*] 
338.87 
342.508 
336.941 
342.302 
338.455 
336.533 
342.786 
341.184 
341.05 
342.71 
344.605 
341.662 
342.669 
342.223 
344.125 
342.846 
342.796 
339.803 
344.898 
338.53 
343.865 
346.305 
346.492 
342.325 
345.946 
345.631 
342.965 
343.679 
343.987 
346.335 
342.334 
343.308 
343.923 
344.441 
342.428 
346.237 
347.581 
349.171 
347.748 
344.168 
346.004 
341.584 
348.815 
341.392 
345.155 
344.585 
345.159 
352.735 
348.306 
346.126 
347.544 
346.957 
348.44 
345.004 
349.374 
350.966 
347.21 
347.56 
347.314 
344.503 
346.087 
344.124 
344.492 
350.261 
348.031 
349.545 
347.194 
348.205 
346.311 
350.598 
347.894 
349.685 
349.83 
349.622 
352.216 
349.506 
350.87 
350.951 
351.544 
351.424 
351.766 
353.295 
347.104 
350.147 
350.354 
351.281 
349.651 
353.426 
351.558 
349.892 
347.121 
350.75 
350.855 
353.777 
353.882 
353.666 
352.557 
349.682 
351.409 
352.006 
