ITEM: TIMESTEP
253800000
ITEM: NUMBER OF CELLS
100
ITEM: BOX BOUNDS ss rr pp
0 0.001
0 1e-05
-0.5 0.5
ITEM: CELLS f_temp1[*] 
343.686 
339.868 
338.883 
344.827 
339.705 
340.689 
345.38 
342.699 
339.648 
341.783 
341.102 
342.647 
342.014 
339.289 
347.211 
343.865 
345.817 
340.251 
345.747 
345.283 
344.249 
345.327 
343.24 
346.298 
343.973 
345.026 
340.202 
342.786 
342.199 
337.551 
343.028 
342.457 
344.088 
345.601 
349.304 
344.881 
347.989 
344.619 
344.288 
346.391 
343.908 
344.548 
348.176 
346.554 
346.424 
347.591 
346.753 
349.552 
346.418 
351.088 
349.763 
348.352 
346.15 
345.871 
350.794 
344.106 
346.55 
351.323 
347.411 
348.418 
347.67 
349.286 
347.738 
348.099 
349.654 
347.502 
350.146 
346.989 
349.748 
346.665 
349.695 
352.693 
350.685 
349.392 
349.835 
345.491 
352.711 
349.789 
349.255 
350.406 
347.143 
352.388 
351.932 
351.747 
351.746 
348.904 
350.529 
353.787 
352.635 
351.894 
351.74 
353.861 
352.218 
353.21 
352.674 
351.566 
350.843 
352.575 
355.325 
357.254 
