ITEM: TIMESTEP
270900000
ITEM: NUMBER OF CELLS
100
ITEM: BOX BOUNDS ss rr pp
0 0.001
0 1e-05
-0.5 0.5
ITEM: CELLS f_temp1[*] 
337.878 
340.211 
341.259 
336.665 
340.946 
341.731 
344.067 
339.833 
341.374 
343.579 
342.119 
340.654 
341.555 
338.596 
341.456 
340.565 
336.037 
342.667 
343.635 
342.193 
340.679 
343.313 
341.187 
341.082 
345.868 
341.611 
342.711 
348.305 
344.548 
342.264 
345.835 
343.924 
345.019 
344.491 
346.795 
343.143 
341.724 
345.323 
343.739 
347.11 
344.504 
343.592 
343.248 
346.838 
347.501 
345.461 
348.913 
348.993 
344.446 
341.386 
342.89 
344.717 
345.412 
344.628 
350.077 
348.038 
346.46 
344.962 
348 
348.933 
349.623 
347.27 
347.422 
347.782 
345.186 
345.734 
349.529 
348.314 
346.702 
347.541 
348.721 
347.889 
346.506 
349.913 
348.803 
349.283 
349.493 
348.382 
354.077 
348.154 
343.83 
348.885 
345.266 
350.338 
349.663 
348.305 
351.647 
348.747 
352.483 
350.447 
351.956 
351.959 
351.983 
352.427 
350.626 
352.265 
352.879 
352.516 
349.686 
352.142 
