ITEM: TIMESTEP
673800000
ITEM: NUMBER OF CELLS
100
ITEM: BOX BOUNDS ss rr pp
0 0.001
0 1e-05
-0.5 0.5
ITEM: CELLS f_temp1[*] 
340.077 
338.986 
341.199 
339.909 
340.126 
341.544 
344.434 
342.085 
341.238 
342.948 
341.288 
343.723 
339.487 
341.863 
344.459 
341.013 
339.454 
344.497 
343.044 
342.688 
340.629 
342.611 
343.019 
340.761 
341.888 
345.605 
345.848 
341.685 
341.196 
345.389 
344.68 
342.945 
346.318 
344.741 
343.527 
347.836 
344.641 
346.956 
343.034 
347.1 
346.994 
344.932 
349.239 
347.014 
346.625 
347.535 
348.981 
345.644 
346.018 
346.04 
346.758 
347.535 
348.418 
350.623 
346.89 
347.658 
348.281 
349.44 
345.523 
347.077 
348.597 
348.423 
347.314 
346.916 
349.808 
352.169 
353.465 
351.985 
350.423 
352.737 
352.288 
350.517 
345.201 
350.961 
350.965 
353.846 
352.798 
352.161 
352.877 
351.33 
352.091 
352.244 
355.558 
354.714 
352.348 
349.504 
352.631 
356.177 
357.181 
354.53 
353.449 
349.75 
354.376 
352.753 
355.132 
355.293 
352.578 
349.326 
353.824 
356.475 
