ITEM: TIMESTEP
277200000
ITEM: NUMBER OF CELLS
100
ITEM: BOX BOUNDS ss rr pp
0 0.001
0 1e-05
-0.5 0.5
ITEM: CELLS f_temp1[*] 
334.118 
340.409 
341.474 
338.22 
340.201 
340.088 
339.967 
338.667 
341.481 
341.721 
341 
336.864 
339.635 
339.456 
343.024 
341.528 
340.683 
342.467 
341.468 
345.066 
337.687 
343.023 
342.992 
340.546 
343.317 
345.334 
344.963 
344.721 
344.039 
341.978 
339.485 
343.028 
341.565 
346.947 
344.06 
345.74 
342.081 
343.697 
340.876 
343.737 
345.579 
348.603 
345.2 
345.85 
346.065 
345.225 
342.944 
343.329 
345.297 
345.694 
346.73 
348.309 
346.014 
347.6 
344.98 
347.364 
347.903 
348.537 
348.641 
347.419 
344.471 
351.05 
349.574 
348.442 
346.216 
347.596 
349.003 
346.098 
347.602 
350.645 
345.76 
348.088 
351.626 
349.72 
348.07 
350.353 
349.968 
350.644 
351.503 
350.383 
347.847 
350.764 
348.842 
351.829 
351.86 
350.556 
356.11 
348.688 
349.199 
352.278 
353.349 
353.319 
349 
348.757 
353.239 
349.861 
351.097 
351.484 
355.968 
353.765 
