ITEM: TIMESTEP
518600000
ITEM: NUMBER OF CELLS
100
ITEM: BOX BOUNDS ss rr pp
0 0.001
0 1e-05
-0.5 0.5
ITEM: CELLS f_temp1[*] 
339.367 
337.702 
342.007 
341.534 
342.472 
339.739 
342.46 
342.138 
340.422 
341.284 
339.585 
347.811 
341.941 
339.234 
346.148 
340.642 
340.635 
343.03 
341.585 
343.054 
347.001 
345.092 
343.3 
344.764 
341.895 
342.143 
343.678 
343.188 
340.477 
342.962 
343.736 
343.485 
341.037 
343.335 
342.24 
340.8 
348.017 
345.87 
346.244 
346.062 
344.076 
343.154 
343.994 
345.618 
346.845 
347.669 
346.15 
345.361 
344.115 
347.272 
348.141 
346.74 
344.035 
349.299 
345.157 
345.812 
348.738 
346.375 
352.087 
346.573 
348.995 
349.035 
348.578 
346.624 
353.478 
348.48 
346.479 
345.889 
349.543 
347.471 
344.822 
348.061 
347.654 
348.979 
346.99 
349.49 
347.721 
348.57 
348.176 
347.377 
349.022 
349.856 
350.931 
349.053 
349.135 
351.255 
349.414 
349.65 
353.716 
354.284 
355.176 
349.67 
352.206 
351.114 
347.349 
352.262 
349.444 
351.462 
355.083 
351.839 
