ITEM: TIMESTEP
393500000
ITEM: NUMBER OF CELLS
100
ITEM: BOX BOUNDS ss rr pp
0 0.001
0 1e-05
-0.5 0.5
ITEM: CELLS f_temp1[*] 
339.271 
339.275 
339.069 
338.504 
337.484 
342.091 
341.293 
338.725 
341.404 
339.182 
340.866 
343.819 
343.276 
343.292 
342.826 
343.96 
340.206 
342.854 
342.498 
343.582 
343.094 
342.074 
343.172 
345.243 
340.844 
342.673 
342.115 
343.543 
344.104 
343.195 
343.629 
344.888 
345.593 
342.556 
342.864 
342.592 
345.863 
344.134 
345.893 
346.503 
345.373 
349.251 
340.996 
342.678 
351.042 
344.73 
345.255 
346.445 
348.202 
349.272 
343.306 
347.618 
346.437 
346.443 
348.138 
347.163 
351.368 
348.12 
345.748 
350.379 
347.648 
348.563 
344.502 
349.948 
348.323 
350.382 
348.685 
348.812 
351.656 
347.953 
347.739 
349.64 
350.887 
350.359 
353.169 
348.827 
349.623 
352.811 
353.299 
349.625 
354.124 
347.731 
352.162 
350.983 
346.382 
354.038 
353.891 
352.464 
354.481 
353.216 
352.232 
353.338 
352.152 
351.819 
355.447 
351.616 
357.401 
351.955 
353.439 
352.586 
