ITEM: TIMESTEP
44400000
ITEM: NUMBER OF CELLS
100
ITEM: BOX BOUNDS ss rr pp
0 0.001
0 1e-05
-0.5 0.5
ITEM: CELLS f_temp1[*] 
343.92 
338.323 
341.292 
339.038 
336.753 
339.047 
341.616 
342.907 
340.655 
336.739 
340.934 
342.121 
343.534 
339.53 
345.546 
341.839 
342.531 
342.767 
341.33 
340.675 
341.098 
342.999 
342.406 
342.948 
339.494 
344.279 
345.331 
346.557 
344.614 
344.477 
347.829 
343.921 
346.269 
343.051 
343.353 
345.802 
346.053 
342.992 
345.279 
348.736 
344.815 
344.333 
346.752 
346.108 
346.022 
346.646 
347.541 
347.64 
349.841 
345.232 
346.119 
347.951 
346.35 
346.164 
347.271 
344.05 
348.243 
347.186 
345.574 
348.762 
349.243 
344.773 
349.953 
346.743 
348.481 
346.989 
345.444 
347.675 
347.797 
344.517 
345.708 
351.416 
346.014 
347.64 
343.607 
349.648 
349.143 
349.778 
349.621 
348.67 
353.04 
353.181 
349.624 
345.475 
352.4 
350.153 
350.209 
350.708 
351.508 
348.231 
353.423 
351.626 
354.214 
350.238 
351.078 
349.906 
352.35 
353.394 
350.934 
352.412 
