ITEM: TIMESTEP
86800000
ITEM: NUMBER OF CELLS
100
ITEM: BOX BOUNDS ss rr pp
0 0.001
0 1e-05
-0.5 0.5
ITEM: CELLS f_temp1[*] 
343.35 
341.376 
341.612 
343.197 
341.465 
345.381 
338.419 
339.321 
340.193 
342.223 
341.811 
342.055 
341.043 
339.49 
342.781 
337.414 
342.016 
341.091 
342.616 
341.827 
341.876 
340.773 
342.253 
340.138 
340.356 
343.122 
342.437 
342.714 
344.409 
342.308 
345.864 
340.034 
343.323 
344.698 
345.06 
337.694 
342.177 
346.109 
342.762 
349.514 
345.001 
344.984 
346.057 
345.758 
347.165 
346.639 
345.609 
345.088 
344.272 
343.516 
344.734 
345.083 
342.017 
347.434 
345.23 
348.528 
345.129 
341.461 
348.051 
342.285 
346.745 
342.748 
351.097 
349.08 
347.185 
349.013 
347.653 
351.107 
348.678 
347.628 
348.975 
346.598 
351.107 
351.363 
348.743 
351.111 
353.753 
351.056 
347.285 
349.263 
353.172 
349.498 
348.48 
350.104 
352.223 
352.487 
353.383 
353.088 
347.873 
356.933 
350.155 
352.031 
346.179 
353.192 
353.111 
351.706 
355.159 
352.964 
353.44 
353.426 
