ITEM: TIMESTEP
258700000
ITEM: NUMBER OF CELLS
100
ITEM: BOX BOUNDS ss rr pp
0 0.001
0 1e-05
-0.5 0.5
ITEM: CELLS f_temp1[*] 
338.257 
338.894 
343.894 
345.119 
339.79 
343.557 
348.173 
338.743 
345.793 
343.389 
342.047 
341.416 
346.362 
345.761 
343.205 
345.523 
343.814 
344.791 
345.799 
342.852 
346.528 
345.244 
344.028 
343.421 
343.54 
344.885 
343.92 
342.576 
343.271 
346.7 
343.144 
343.552 
346.085 
340.407 
346.643 
345.376 
345.318 
344.312 
346.904 
346.267 
349.864 
343.004 
347.066 
345.005 
345.991 
345.855 
348.575 
348.079 
344.004 
343.726 
346.239 
346.545 
343.369 
346.035 
349.512 
347.395 
347.873 
345.037 
349.873 
346.002 
347.298 
348.991 
349.251 
352.264 
348.674 
347.906 
350.036 
349.742 
353.145 
349.677 
348.5 
356.321 
352.548 
347.827 
350.961 
346.132 
348.446 
353.192 
348.846 
352.922 
353.714 
349.773 
350.152 
351.525 
350.317 
351.218 
353.169 
356.384 
351.855 
352.106 
353.475 
351.636 
355.405 
351.563 
359.182 
349.545 
353.304 
354.597 
351.522 
356.256 
