ITEM: TIMESTEP
25800000
ITEM: NUMBER OF CELLS
100
ITEM: BOX BOUNDS ss rr pp
0 0.001
0 1e-05
-0.5 0.5
ITEM: CELLS f_temp1[*] 
341.204 
341.391 
341.301 
339.732 
339.884 
341.039 
344.06 
343.143 
341.681 
340.001 
343.461 
344.961 
345.83 
343.816 
340.747 
343.207 
343.414 
343.322 
343.911 
343.826 
344.347 
343.671 
343.235 
343.907 
343.615 
342.141 
345.205 
346.196 
341.881 
344.891 
346.06 
348.922 
346.358 
346.827 
346.945 
347.603 
348.927 
347.339 
348.56 
347.278 
344.526 
347.46 
346.976 
345.188 
350.743 
343.743 
347.92 
345.201 
349.351 
349.014 
346.419 
345.335 
349.028 
348.482 
349.699 
349.854 
349.993 
343.708 
351.613 
347.995 
349.743 
344.481 
350.932 
353.64 
350.967 
353.143 
350.541 
349.501 
353.591 
352.728 
352.346 
349.716 
350.252 
352.415 
350.727 
354.466 
355.022 
354.139 
353.249 
349.191 
354.637 
353.885 
352.983 
352.424 
354.392 
348.721 
351.828 
354.403 
357.356 
351.093 
350.803 
356.408 
351.352 
358.041 
355.549 
354.11 
352.986 
355.565 
352.907 
356.479 
