ITEM: TIMESTEP
524600000
ITEM: NUMBER OF CELLS
100
ITEM: BOX BOUNDS ss rr pp
0 0.001
0 1e-05
-0.5 0.5
ITEM: CELLS f_temp1[*] 
341.231 
338.564 
339.612 
339.402 
339.653 
343.702 
337.293 
339.682 
339.031 
340.049 
341.4 
345.597 
339.174 
340.433 
341.953 
340.321 
341.502 
338.584 
343.118 
340.589 
339.389 
341.31 
341.371 
341.471 
344.883 
343.161 
343.57 
346.214 
344.284 
341.114 
345.277 
344.172 
345.578 
344.861 
345.24 
340.497 
345.163 
345.745 
344.575 
345.249 
342.173 
341.206 
343.056 
345.461 
342.716 
348.807 
346.322 
345.405 
347.604 
348.199 
342.671 
346.379 
350.881 
346.487 
347.966 
344.745 
345.994 
346.07 
347.706 
344.227 
347.935 
347.238 
346.636 
346.827 
349.848 
347.061 
348.488 
349.616 
350.387 
345.462 
348.372 
349.369 
349.84 
349.771 
349.491 
349.73 
351.889 
350.766 
348.523 
348.638 
349.834 
346.918 
352.913 
350.737 
352.637 
350.423 
352.208 
349.378 
352.318 
347.497 
352.846 
350.226 
351.873 
348.656 
350.003 
352.047 
351.469 
352.743 
350.186 
353.75 
