ITEM: TIMESTEP
512200000
ITEM: NUMBER OF CELLS
100
ITEM: BOX BOUNDS ss rr pp
0 0.001
0 1e-05
-0.5 0.5
ITEM: CELLS f_temp1[*] 
340.254 
339.645 
341.073 
344.953 
341.918 
341.774 
341.396 
339.618 
343.211 
340.017 
343.873 
341.683 
337.496 
343.225 
337.992 
344.233 
342.419 
343.09 
344.373 
340.112 
342.94 
339.538 
342.849 
339.2 
342.695 
344.147 
343.4 
342.609 
347.833 
341.75 
344.412 
344.884 
340.001 
344.201 
344.485 
345.08 
341.289 
344.062 
340.07 
344.975 
344.56 
346.873 
347.401 
346.305 
345.744 
343.215 
345.732 
344.788 
345.413 
347.615 
344.744 
344.724 
347.345 
349.165 
344.725 
344.748 
347.772 
347.844 
349.948 
350.585 
349.53 
346.076 
346.812 
348.823 
348.024 
347.425 
350.561 
347.655 
345.59 
351.626 
347.371 
346.652 
351.786 
344.44 
346.877 
350.636 
350.192 
347.507 
350.124 
354.286 
346.563 
351.322 
353.273 
351.353 
348.694 
352.664 
352.311 
351.892 
353.767 
349.932 
350.14 
351.486 
351.387 
354.279 
351.525 
352.813 
351.39 
349.565 
351.459 
355.618 
