ITEM: TIMESTEP
22300000
ITEM: NUMBER OF CELLS
100
ITEM: BOX BOUNDS ss rr pp
0 0.001
0 1e-05
-0.5 0.5
ITEM: CELLS f_temp1[*] 
340.987 
340.761 
343.656 
340.395 
340.432 
343.853 
340.523 
342.321 
340.921 
341.854 
339.259 
345.996 
342.114 
339.075 
341.929 
344.643 
342.972 
344.89 
340.632 
339.899 
342.539 
342.379 
343.637 
344.892 
342.716 
344.995 
341.94 
346.43 
347.536 
347.89 
344.587 
342.455 
344.929 
347.266 
341.573 
347.422 
345.981 
345.863 
345.955 
345.782 
349.699 
346.907 
346.743 
344.62 
349.92 
346.432 
348.342 
350.698 
347.854 
346.224 
342.199 
347.404 
342.889 
347.478 
343.567 
348.698 
351.793 
347.416 
352.71 
345.173 
349.603 
350.102 
348.573 
349.759 
348.728 
351.04 
350.196 
346.71 
350.284 
348.859 
344.015 
348.103 
348.273 
348.764 
346.688 
349.869 
345.985 
350.401 
346.583 
349.383 
350.107 
349.243 
348.219 
351.98 
351.308 
350.746 
349.676 
351.049 
351.714 
352.389 
351.599 
349.93 
354.474 
350.912 
348.107 
349.623 
351.344 
351.169 
353.024 
359.38 
