ITEM: TIMESTEP
774800000
ITEM: NUMBER OF CELLS
100
ITEM: BOX BOUNDS ss rr pp
0 0.001
0 1e-05
-0.5 0.5
ITEM: CELLS f_temp1[*] 
338.462 
337.042 
342.577 
340.916 
339.96 
340.104 
340.825 
339.892 
339.153 
345.255 
341.331 
340.39 
342.149 
342.667 
337.111 
338.657 
340.047 
339.762 
340.485 
341.522 
346.128 
339.88 
341.107 
342.786 
343.818 
340.666 
343.088 
341.674 
341.555 
342.126 
338.868 
342.597 
346.708 
345.042 
344.854 
345.251 
343.552 
342.899 
346.749 
345.066 
346.267 
346.338 
343.086 
346.242 
342.682 
346.124 
343.917 
345.987 
344.234 
346.659 
346.131 
346.24 
345.327 
347.077 
345.074 
346.605 
344.844 
344.598 
347.436 
348.924 
348.815 
348.947 
353.798 
349.071 
350.155 
347.642 
350.673 
354.171 
348.269 
349.178 
349.857 
349.901 
352.064 
347.393 
354.256 
349.635 
349.77 
349.808 
349.122 
349.997 
350.539 
352.573 
348.1 
350.585 
349.135 
350.857 
349.688 
352.132 
350.883 
348.096 
349.777 
354.129 
352.721 
354.309 
353.541 
356.586 
355.156 
351.324 
354.975 
354.118 
