ITEM: TIMESTEP
776800000
ITEM: NUMBER OF CELLS
100
ITEM: BOX BOUNDS ss rr pp
0 0.001
0 1e-05
-0.5 0.5
ITEM: CELLS f_temp1[*] 
340.491 
343.504 
341.511 
337.646 
337.987 
342.54 
339.708 
341.57 
336.712 
342.357 
338.818 
340.136 
337.71 
338.61 
339.078 
343.744 
339.885 
340.287 
341.622 
347.532 
343.579 
342.577 
340.832 
342.518 
345.884 
343.409 
341.095 
343.286 
349.583 
344.438 
347.315 
345.119 
344.368 
346.205 
352.802 
346.311 
346.365 
349.073 
345.476 
348.153 
342.571 
343.691 
342.996 
343.227 
347.11 
345.478 
348.617 
341.164 
345.859 
346.033 
346.869 
345.485 
346.179 
346.55 
348.803 
347.208 
343.531 
346.281 
349.245 
345.163 
348.957 
350.438 
342.334 
344.672 
345.625 
342.205 
347.45 
346.927 
348.124 
349.018 
350.635 
345.77 
350.986 
349.415 
348.153 
350.523 
354.259 
348.057 
351.285 
351.431 
348.883 
348.932 
352.337 
350.374 
352.081 
354.317 
350.162 
351.228 
351.57 
350.439 
352.435 
351.173 
351.864 
352.069 
356.194 
351.728 
352.907 
356.91 
353.844 
351.458 
