ITEM: TIMESTEP
180300000
ITEM: NUMBER OF CELLS
100
ITEM: BOX BOUNDS ss rr pp
0 0.001
0 1e-05
-0.5 0.5
ITEM: CELLS f_temp1[*] 
339.638 
341.599 
342.628 
338.889 
339.023 
340.794 
340.799 
337.481 
341.241 
341.212 
338.866 
343.849 
345.414 
341.093 
339.535 
340.482 
344.189 
342.273 
336.683 
340.227 
343.897 
344.885 
340.617 
347.446 
342.451 
345.486 
347.323 
339.798 
346.067 
341.904 
345.162 
345.328 
343.152 
341.435 
345.285 
346.716 
346.05 
341.132 
345.276 
344.905 
345.413 
343.244 
345.473 
345.047 
347.205 
346.511 
343.558 
350.389 
341.232 
346.228 
346.467 
345.691 
352.771 
349.206 
347.263 
341.749 
343.598 
347.149 
349.307 
348.365 
345.81 
350.574 
350.832 
345.585 
349.595 
347.417 
347.919 
348.547 
350.696 
346.18 
347.37 
349.089 
353.903 
348.605 
352.925 
349.454 
349.251 
351.174 
352.337 
349.43 
348.316 
349.863 
347.242 
348.93 
353.665 
345.86 
351.986 
351.345 
353.664 
346.831 
352.914 
351.969 
351.058 
352.792 
356.094 
350.358 
352.762 
354.408 
352.186 
353.93 
