ITEM: TIMESTEP
369800000
ITEM: NUMBER OF CELLS
100
ITEM: BOX BOUNDS ss rr pp
0 0.001
0 1e-05
-0.5 0.5
ITEM: CELLS f_temp1[*] 
335.357 
341.002 
338.456 
342.097 
338.626 
338.324 
341.193 
335.679 
341.705 
341.675 
343.479 
342.135 
339.678 
344.285 
341.888 
340.796 
340.193 
340.621 
343.544 
343.073 
341.11 
343.968 
342.718 
340.306 
341.855 
345.394 
343.372 
343.441 
342.586 
345.999 
346.988 
341.078 
342.722 
344.492 
342.965 
345.934 
342.677 
347.95 
345.939 
342.033 
344.523 
344.995 
344.694 
344.27 
343.67 
348.315 
346.241 
344.832 
344.551 
345.363 
341.421 
346.969 
347.873 
347.178 
347.534 
348.592 
347.897 
347.843 
348.998 
344.369 
348.078 
347.116 
349.977 
352.938 
346.974 
345.934 
350.399 
347.53 
348.736 
347.423 
351.235 
351.237 
349.041 
352.966 
350.601 
350.034 
351.513 
346.868 
352.818 
347.344 
352.381 
355.421 
351.213 
350.056 
355.448 
350.514 
355.652 
350.558 
349.219 
352.709 
352.631 
352.162 
354.988 
354.672 
352.917 
351.313 
351.012 
350.984 
353.999 
353.24 
