ITEM: TIMESTEP
128200000
ITEM: NUMBER OF CELLS
100
ITEM: BOX BOUNDS ss rr pp
0 0.001
0 1e-05
-0.5 0.5
ITEM: CELLS f_temp1[*] 
336.549 
332.631 
338.88 
339.334 
340.73 
340.774 
341.385 
339.663 
341.581 
339.367 
339.6 
342.67 
342.121 
338.708 
336.927 
343.032 
346.224 
336.959 
343.66 
344.484 
338.337 
342.086 
342.643 
344.955 
341.776 
338.841 
343.269 
345.059 
339.63 
342.813 
345.058 
344.826 
344.551 
339.743 
344.257 
346.73 
345.551 
346.127 
345.297 
344.706 
347.004 
344.416 
344.327 
348.12 
344.936 
341.139 
346.103 
342.983 
344.263 
346.527 
343.01 
348.718 
343.281 
346.519 
344.077 
350.668 
348.699 
345.798 
348.435 
347.959 
345.998 
347.015 
347.629 
347.935 
347.269 
345.491 
345.561 
348.13 
349.136 
345.618 
347.91 
348.12 
349.795 
349.222 
346.106 
347.078 
346.85 
347.682 
344.945 
345.92 
350.337 
349.111 
349.967 
352.508 
349.686 
347.092 
351.885 
351.165 
348.637 
351.17 
347.138 
347.203 
351.543 
350.377 
352.718 
352.169 
350.915 
350.919 
353.345 
352.065 
