ITEM: TIMESTEP
79000000
ITEM: NUMBER OF CELLS
100
ITEM: BOX BOUNDS ss rr pp
0 0.001
0 1e-05
-0.5 0.5
ITEM: CELLS f_temp1[*] 
336.905 
339.56 
339.711 
338.276 
340.847 
339.352 
338.897 
341.753 
342.277 
341.908 
342.715 
341.583 
342.202 
342.597 
340.011 
340.947 
344.693 
343.899 
340.21 
339.65 
340.726 
344.123 
341.74 
341.679 
343.809 
341.903 
342.399 
341.177 
344.574 
343.574 
345.277 
343.042 
344.587 
344.497 
344.708 
345.72 
342.633 
345.353 
347.785 
344.046 
345.754 
343.684 
345.763 
344.084 
347.025 
348.204 
347.187 
346.527 
347.406 
344.256 
345.751 
346.592 
347.044 
343.109 
346.822 
344.477 
349.669 
345.354 
352.249 
347.326 
344.027 
348.91 
348.514 
343.848 
351.931 
350.94 
349.021 
347.798 
345.676 
343.99 
352.799 
351.435 
350.436 
352.029 
350.766 
349.968 
349.278 
348.308 
346.967 
351.47 
352.938 
351.158 
349.644 
351.868 
352.715 
347.54 
351.67 
353.263 
351.059 
353.307 
351.94 
355.247 
356.701 
352.881 
352.056 
353.339 
355.466 
353.804 
353.46 
353.877 
