ITEM: TIMESTEP
210300000
ITEM: NUMBER OF CELLS
100
ITEM: BOX BOUNDS ss rr pp
0 0.001
0 1e-05
-0.5 0.5
ITEM: CELLS f_temp1[*] 
338.546 
346.828 
339.553 
341.952 
340.648 
340.849 
339.856 
343.966 
339.686 
342.101 
343.61 
341.857 
344.773 
343.155 
344.197 
340.124 
346.428 
343.207 
344.021 
343.617 
345.131 
341.702 
347.832 
340.066 
343.516 
342.994 
346.254 
348.858 
344.666 
345.392 
343.989 
343.529 
344.632 
343.562 
346.093 
343.753 
343.081 
346.665 
346.953 
348.52 
346.319 
349.367 
349.427 
348.619 
345.488 
348.455 
349.059 
351.557 
345.857 
345.21 
348.989 
352.839 
348.396 
345.346 
347.953 
351.506 
348.915 
348.816 
346.854 
349.758 
346.788 
350.184 
353.223 
350.532 
351.244 
349.003 
350.699 
350.808 
349.884 
349.774 
349.719 
346.839 
350.592 
349.781 
348.852 
351.535 
349.462 
352.951 
349.553 
351.827 
354.5 
353.135 
352.151 
351.846 
350.002 
348.938 
355.33 
352.904 
351.642 
351.057 
351.194 
351.75 
352.508 
350.127 
355.098 
352.901 
353.862 
354.226 
353.537 
356.156 
