ITEM: TIMESTEP
459000000
ITEM: NUMBER OF CELLS
100
ITEM: BOX BOUNDS ss rr pp
0 0.001
0 1e-05
-0.5 0.5
ITEM: CELLS f_temp1[*] 
339.469 
341.585 
339.329 
341.27 
341.478 
342.007 
341.686 
342.516 
344.103 
343.943 
337.398 
342.101 
343.682 
341.765 
341.297 
346.066 
341.182 
341.167 
346.011 
340.346 
343.488 
344.184 
344.49 
341.639 
346.756 
345.616 
346.594 
341.722 
340.385 
344.896 
344.783 
346.621 
343.454 
344.466 
342.027 
344.512 
343.425 
347.607 
347.038 
339.062 
345.143 
346.095 
346.76 
345.967 
344.424 
345.184 
345.496 
344.662 
346.73 
347.882 
350.684 
347.492 
348.383 
345.406 
346.454 
348.935 
351.572 
348.679 
349.699 
346.819 
348.483 
352.011 
348.693 
348.053 
348.863 
349.711 
348.502 
347.477 
348.416 
347.61 
345.954 
349.339 
352.281 
349.029 
353.357 
346.98 
349.247 
351.282 
353.343 
346.005 
351.225 
348.58 
351.643 
352.751 
348.714 
351.459 
350.172 
355.093 
350.917 
353.349 
347.318 
354.615 
353.051 
355.241 
354.861 
352.169 
355.568 
351.88 
357.037 
353.443 
