ITEM: TIMESTEP
778000000
ITEM: NUMBER OF CELLS
100
ITEM: BOX BOUNDS ss rr pp
0 0.001
0 1e-05
-0.5 0.5
ITEM: CELLS f_temp1[*] 
339.271 
340.48 
339.574 
338.948 
341.631 
342.053 
338.943 
343.024 
340.527 
340.053 
342.596 
341.977 
340.849 
341.527 
339.259 
338.748 
343.017 
342.307 
340.825 
342.677 
338.663 
342.678 
343.573 
341.968 
340.336 
341.037 
343.001 
340.493 
341.92 
343.345 
343.001 
343.722 
344.653 
348.229 
348.443 
343.831 
345.216 
339.936 
342.335 
342.926 
344.528 
344.179 
341.878 
345.799 
346.334 
345.543 
345.423 
343.062 
346.196 
343.376 
346.774 
344.992 
345.439 
343.841 
347.151 
346.101 
347.557 
344.422 
345.43 
346.251 
345.178 
348.289 
346.914 
347.816 
348.232 
351.235 
344.655 
346.34 
349.1 
346.357 
349.43 
348.041 
349.861 
348.145 
344.767 
349.728 
347.733 
349.429 
349.655 
347.664 
348.427 
350.44 
351.089 
349.971 
351.501 
352.733 
350.309 
354.641 
350.928 
348.783 
355.16 
351.512 
354.541 
353.317 
351.999 
350.887 
352.195 
353.549 
351.111 
349.229 
