ITEM: TIMESTEP
123900000
ITEM: NUMBER OF CELLS
100
ITEM: BOX BOUNDS ss rr pp
0 0.001
0 1e-05
-0.5 0.5
ITEM: CELLS f_temp1[*] 
341.685 
341.026 
337.39 
341.195 
343.403 
341.455 
336.229 
341.028 
339.89 
338.253 
343.098 
339.324 
341.501 
336.817 
341.985 
341.252 
342.749 
343.298 
339.861 
344.826 
344.55 
341.508 
342.485 
343.375 
342.651 
340.218 
342.292 
344.451 
340.891 
343.614 
339.476 
345.818 
346.132 
345.05 
343.114 
342.855 
344.799 
339.137 
345.091 
343.838 
345.188 
348.066 
342.121 
349.986 
345.814 
342.108 
345.302 
346.927 
344.751 
346.336 
346.83 
345.413 
347.709 
345.251 
347.197 
349.12 
346.596 
346.906 
347.477 
347.736 
348.78 
351.837 
349.319 
345.076 
348.205 
348.853 
353.807 
347.008 
349.57 
347.943 
349.241 
345.386 
349.219 
350.442 
348.88 
350.327 
348.505 
351.231 
353.404 
349.722 
352.778 
352.519 
347.548 
352.181 
351.225 
355.655 
355.815 
349.067 
353.499 
350.117 
350.137 
352.277 
352.635 
353.931 
352.92 
350.815 
354.695 
351.775 
352.912 
350.591 
