ITEM: TIMESTEP
43800000
ITEM: NUMBER OF CELLS
100
ITEM: BOX BOUNDS ss rr pp
0 0.001
0 1e-05
-0.5 0.5
ITEM: CELLS f_temp1[*] 
338.239 
334.318 
336.553 
341.037 
341.23 
340.555 
342.024 
343.543 
344.193 
341.694 
341.224 
342.108 
339.815 
339.213 
341.99 
338.711 
340.001 
345.956 
342.041 
342.757 
340.423 
342.689 
340.875 
343.481 
342.379 
346.194 
345.391 
346.627 
341.586 
345.561 
344.454 
346.912 
345.757 
342.662 
344.37 
345.744 
343.378 
344.285 
345.199 
345.665 
346.864 
345.27 
347.048 
344.86 
343.872 
346.862 
349.777 
345.344 
345.767 
348.171 
344.233 
348.434 
347.913 
341.216 
347.085 
345.317 
352.26 
349.129 
347.082 
348.554 
348.416 
346.793 
348.701 
350.209 
351.065 
348.852 
350.503 
347.464 
349.487 
344.84 
345.322 
350.508 
345.839 
351.453 
343.331 
349.178 
350.141 
348.875 
347.895 
352.298 
347.919 
345.942 
349.373 
348.875 
354.579 
350.759 
349.098 
352.481 
353.175 
351.014 
351.379 
345.115 
349.806 
356.459 
350.557 
349.928 
351.253 
354.054 
355.394 
349.541 
