ITEM: TIMESTEP
3400000
ITEM: NUMBER OF CELLS
100
ITEM: BOX BOUNDS ss rr pp
0 0.001
0 1e-05
-0.5 0.5
ITEM: CELLS f_temp1[*] 
342.638 
341 
341.782 
338.03 
341.379 
342.391 
343.461 
337.97 
340.133 
341.008 
341.451 
341.257 
341.334 
339.126 
341.044 
341.193 
344.556 
340.992 
343.646 
339.385 
338.942 
343.232 
342.978 
341.497 
343.339 
343.572 
341.78 
342.501 
342.306 
345.896 
343.369 
345.262 
344.903 
343.179 
344.276 
345.868 
344.078 
347.844 
342.572 
345.292 
343.031 
343.132 
346.053 
345.216 
348.197 
349.371 
349.816 
347.471 
347.109 
346.509 
345.8 
345.308 
348.393 
347.751 
349.218 
345.521 
344.898 
346.92 
346.068 
344.285 
349.371 
350.051 
347.913 
351.356 
348.339 
345.41 
347.137 
349.747 
347.827 
349.588 
349.867 
348.56 
345.918 
347.152 
349.972 
346.135 
346.973 
348.483 
349.383 
349.708 
348.117 
350.325 
353.509 
349.046 
351.57 
355.956 
352.591 
350.418 
348.934 
353.707 
352.305 
355.296 
348.1 
351.732 
350.515 
352.039 
347.751 
350.421 
353.511 
350.083 
