ITEM: TIMESTEP
451100000
ITEM: NUMBER OF CELLS
100
ITEM: BOX BOUNDS ss rr pp
0 0.001
0 1e-05
-0.5 0.5
ITEM: CELLS f_temp1[*] 
341.119 
340.15 
340.797 
343.978 
340.833 
342.084 
339.105 
339.91 
341.222 
339.723 
343.364 
340.619 
339.016 
339.108 
343.306 
345.185 
344.284 
343.778 
341.615 
342.349 
341.822 
340.825 
343.912 
346.132 
339.986 
340.111 
344.442 
344.938 
346.161 
345.55 
342.088 
342.203 
340.366 
344.664 
342.062 
348.731 
346.709 
346.143 
344.643 
347.488 
348.794 
348.578 
346.548 
345.695 
345.437 
345.597 
345.902 
344.667 
346.399 
347.304 
345.331 
344.142 
349.773 
347.212 
344.615 
344.482 
346.874 
347.442 
343.605 
346.974 
348.268 
344.894 
346.662 
349.363 
345.105 
350.841 
346.868 
348.233 
343.431 
347.202 
348.318 
346.131 
346.688 
351.372 
352.658 
350.527 
348.396 
350.707 
347.784 
350.605 
350.631 
348.996 
355.077 
351.134 
347.768 
348.952 
351.311 
354.668 
349.854 
353.106 
352.72 
351.13 
350.161 
354.619 
356.735 
356.635 
351.068 
353.302 
354.289 
350.091 
