ITEM: TIMESTEP
340300000
ITEM: NUMBER OF CELLS
100
ITEM: BOX BOUNDS ss rr pp
0 0.001
0 1e-05
-0.5 0.5
ITEM: CELLS f_temp1[*] 
340.705 
338.726 
342.987 
341.707 
341.03 
339.347 
339.287 
343.971 
339.912 
341.223 
340.981 
344.554 
339.518 
343.795 
342.858 
343.434 
339.822 
342.107 
346.127 
342.217 
344.37 
345.137 
342.602 
346.533 
345.934 
338.206 
348.549 
344.241 
344.603 
347.953 
348.556 
343.808 
346.032 
341.471 
342.268 
341.526 
346.659 
344.18 
345.904 
345.487 
344.237 
345.684 
346.018 
345.315 
345.808 
345.461 
347.282 
345.701 
343.592 
348.416 
348.981 
345.107 
347.985 
346.416 
346.129 
346.141 
344.904 
345.951 
348.296 
348.545 
347.349 
351.128 
345.794 
349.635 
352.754 
346.613 
350.884 
350.246 
348.328 
350.903 
348.719 
350.889 
352.73 
349.228 
345.232 
343.314 
351.627 
350.608 
350.432 
348.955 
350.691 
353.561 
348.503 
349.645 
351.339 
351.367 
352.861 
350.68 
352.827 
350.154 
353.15 
352.161 
354.019 
354.727 
350.504 
352.165 
353.972 
353.914 
356.289 
351.749 
