ITEM: TIMESTEP
153200000
ITEM: NUMBER OF CELLS
100
ITEM: BOX BOUNDS ss rr pp
0 0.001
0 1e-05
-0.5 0.5
ITEM: CELLS f_temp1[*] 
339.976 
338.763 
339.722 
341.342 
341.28 
345.138 
343.218 
341.14 
341.426 
339.614 
339.19 
344.409 
344.424 
340.898 
344.693 
345.526 
341.219 
346.208 
342.164 
342.994 
343.516 
341.118 
343.662 
343.95 
342.435 
346.076 
345.785 
346.915 
345.338 
345.349 
344.166 
346.763 
343.576 
342.532 
348.948 
344.125 
344.259 
344.142 
344.915 
343.264 
347.143 
345.9 
345.845 
347.37 
344.244 
346.538 
343.307 
345.171 
344.668 
347.967 
345.62 
345.879 
344.21 
345.256 
347.757 
348.779 
345.896 
345.226 
350.632 
349.295 
346.845 
347.207 
354.681 
350.364 
346.796 
348.16 
345.863 
350.146 
345.08 
350.161 
349.48 
352.637 
351.544 
346.006 
349.826 
350.248 
349.046 
349.244 
350.81 
349.469 
348.868 
351.608 
349.58 
346.975 
351.585 
351.163 
348.323 
353.217 
348.328 
353.773 
347.603 
350.411 
351.846 
351.288 
348.397 
348.801 
353.12 
356.169 
352.821 
350.211 
