ITEM: TIMESTEP
547300000
ITEM: NUMBER OF CELLS
100
ITEM: BOX BOUNDS ss rr pp
0 0.001
0 1e-05
-0.5 0.5
ITEM: CELLS f_temp1[*] 
340.898 
337.611 
341.32 
338.368 
339.828 
339.491 
338.112 
341.521 
340.31 
339.89 
341.367 
337.805 
339.283 
337.954 
343.614 
340.95 
344.261 
339.24 
340.213 
344.122 
342.768 
343.7 
341.184 
343.558 
341.423 
343.384 
347.561 
341.995 
344.707 
350.22 
340.141 
344.201 
343.838 
347.605 
344.009 
339.495 
341.037 
346.423 
346.014 
347.974 
342.798 
345.359 
343.968 
344.838 
344.312 
347.968 
348.284 
343.65 
346.262 
346.653 
354.534 
345.879 
346.533 
345.521 
346.559 
348.153 
346.298 
344.541 
346.168 
345.218 
346.283 
343.791 
345.098 
348.302 
348.629 
352.975 
346.162 
347.356 
347.999 
347.486 
347.251 
350.933 
348.462 
344.445 
346.917 
347.767 
346.114 
344.829 
347.402 
347.374 
351.914 
345.651 
343.527 
348.64 
345.881 
347.565 
348.072 
347.283 
347.983 
347.814 
349.707 
351.284 
353.614 
348.438 
350.062 
351.344 
349.757 
351.611 
352.881 
352.778 
