ITEM: TIMESTEP
600400000
ITEM: NUMBER OF CELLS
100
ITEM: BOX BOUNDS ss rr pp
0 0.001
0 1e-05
-0.5 0.5
ITEM: CELLS f_temp1[*] 
335.28 
341.581 
343.708 
336.817 
338.4 
339.644 
338.54 
342.865 
340.358 
341.765 
341.65 
342.175 
341.684 
340.175 
339.253 
341.315 
344.111 
340.983 
342.1 
345.275 
343.738 
343.845 
343.938 
341.161 
342.13 
340.626 
341.874 
344.064 
344.9 
344.021 
341.624 
341.713 
346.391 
342.99 
344.369 
343.325 
344.452 
347.076 
346.833 
346.948 
344.887 
342.259 
342.183 
346.859 
346.944 
345.461 
346.358 
348.383 
346.146 
347.224 
344.205 
346.59 
348.209 
349.613 
347.472 
345.649 
351.698 
351.634 
348.21 
351.663 
350.625 
347.258 
350.21 
348.398 
349.957 
349.961 
351.785 
350.683 
347.772 
351.349 
349.376 
350.18 
350.229 
350.951 
351.886 
352.196 
353.977 
352.349 
352.247 
349.843 
351.281 
352.525 
354.712 
356.534 
354.468 
352.386 
358.182 
354.106 
350.806 
352.446 
354.494 
353.973 
353.164 
349.186 
354.509 
355.583 
350.732 
353.098 
351.545 
355.653 
