ITEM: TIMESTEP
593800000
ITEM: NUMBER OF CELLS
100
ITEM: BOX BOUNDS ss rr pp
0 0.001
0 1e-05
-0.5 0.5
ITEM: CELLS f_temp1[*] 
341.676 
338.493 
338.254 
339.98 
339.472 
341.28 
341.506 
340.308 
340.784 
337.719 
343.792 
343.826 
340.658 
341.704 
344.659 
343.506 
343.365 
343.999 
341.363 
344.266 
341.767 
343.047 
340.936 
343.418 
343.836 
341.688 
344.958 
343.185 
343.864 
343.501 
346.421 
346.844 
348.097 
345.181 
339.331 
345.469 
342.551 
344.85 
348.224 
343.655 
343.47 
344.61 
347.085 
345.8 
349.578 
346.568 
347.463 
346.332 
345.787 
346.516 
345.525 
343.931 
346.941 
344.44 
345.477 
343.156 
346.64 
345.117 
351.288 
341.899 
345.167 
347.338 
345.394 
351.004 
347.188 
346.59 
345.224 
349.59 
348.383 
348.658 
350.943 
348.916 
347.618 
348.139 
352.743 
349.246 
350.057 
350.563 
351.239 
349.586 
349.579 
348.24 
351.558 
353.657 
351.017 
348.942 
349.417 
349.44 
350.568 
348.637 
348.231 
348.83 
353.152 
355.097 
351.901 
350.608 
353.981 
349.204 
351.328 
351.556 
