ITEM: TIMESTEP
114000
ITEM: NUMBER OF CELLS
100
ITEM: BOX BOUNDS ss pp pp
0 0.001
0 1e-05
-0.5 0.5
ITEM: CELLS c_particles[1] 
28 
19 
21 
28 
13 
22 
25 
31 
26 
29 
20 
15 
19 
22 
20 
16 
20 
10 
20 
22 
18 
24 
20 
26 
26 
26 
17 
18 
25 
23 
22 
32 
22 
16 
18 
22 
21 
18 
16 
15 
26 
16 
18 
16 
21 
19 
6 
33 
15 
20 
20 
21 
18 
22 
20 
17 
27 
18 
21 
25 
19 
20 
27 
19 
23 
15 
24 
24 
15 
21 
20 
20 
22 
15 
20 
19 
18 
24 
15 
21 
31 
18 
19 
13 
22 
13 
18 
15 
24 
16 
15 
12 
16 
12 
13 
26 
20 
16 
13 
17 
