ITEM: TIMESTEP
156000
ITEM: NUMBER OF CELLS
100
ITEM: BOX BOUNDS ss pp pp
0 0.001
0 1e-05
-0.5 0.5
ITEM: CELLS c_particles[1] 
24 
30 
20 
31 
27 
12 
20 
21 
19 
20 
18 
30 
21 
25 
19 
24 
21 
22 
23 
25 
18 
21 
15 
19 
16 
28 
15 
28 
27 
20 
20 
25 
20 
26 
14 
27 
18 
20 
23 
17 
22 
18 
34 
22 
23 
16 
20 
14 
20 
20 
17 
13 
18 
22 
19 
17 
21 
17 
15 
18 
17 
22 
19 
18 
23 
12 
13 
21 
17 
19 
21 
15 
21 
21 
16 
29 
14 
21 
21 
21 
20 
21 
15 
19 
23 
20 
13 
17 
22 
8 
16 
22 
19 
19 
10 
24 
26 
16 
15 
19 
