ITEM: TIMESTEP
181000
ITEM: NUMBER OF CELLS
100
ITEM: BOX BOUNDS ss pp pp
0 0.001
0 1e-05
-0.5 0.5
ITEM: CELLS c_particles[1] 
20 
18 
28 
31 
26 
27 
21 
17 
27 
22 
27 
29 
25 
26 
21 
21 
21 
19 
13 
23 
16 
24 
15 
20 
19 
21 
21 
23 
25 
15 
17 
32 
14 
24 
26 
22 
28 
23 
27 
16 
22 
15 
23 
17 
21 
21 
32 
19 
13 
24 
21 
14 
16 
17 
20 
23 
17 
17 
20 
12 
22 
20 
21 
24 
18 
18 
12 
21 
18 
19 
31 
24 
18 
15 
22 
19 
11 
14 
20 
20 
20 
16 
17 
13 
19 
19 
14 
14 
15 
7 
20 
16 
15 
25 
19 
17 
23 
14 
14 
22 
