ITEM: TIMESTEP
19000
ITEM: NUMBER OF CELLS
100
ITEM: BOX BOUNDS ss pp pp
0 0.001
0 1e-05
-0.5 0.5
ITEM: CELLS c_particles[1] 
19 
22 
24 
30 
29 
24 
19 
28 
19 
16 
28 
21 
18 
21 
29 
16 
14 
29 
22 
19 
30 
19 
22 
29 
18 
21 
16 
27 
26 
14 
20 
18 
22 
20 
19 
23 
25 
17 
12 
14 
20 
24 
16 
30 
18 
17 
18 
26 
26 
16 
19 
21 
23 
26 
17 
20 
27 
17 
22 
25 
24 
17 
22 
12 
7 
15 
15 
20 
16 
22 
22 
24 
27 
15 
12 
27 
11 
21 
15 
18 
15 
21 
21 
18 
15 
28 
21 
24 
18 
14 
9 
17 
17 
19 
15 
21 
13 
17 
18 
10 
