ITEM: TIMESTEP
133000
ITEM: NUMBER OF CELLS
100
ITEM: BOX BOUNDS ss pp pp
0 0.001
0 1e-05
-0.5 0.5
ITEM: CELLS c_particles[1] 
21 
23 
29 
25 
12 
19 
24 
28 
22 
18 
20 
26 
18 
22 
17 
20 
31 
19 
14 
28 
17 
22 
26 
18 
27 
28 
19 
25 
19 
19 
18 
19 
24 
27 
15 
18 
22 
22 
17 
18 
18 
15 
20 
21 
24 
26 
27 
24 
17 
18 
19 
15 
24 
19 
22 
33 
19 
10 
23 
16 
23 
13 
18 
17 
21 
24 
14 
14 
14 
19 
19 
20 
26 
14 
12 
29 
26 
17 
19 
14 
15 
14 
17 
22 
20 
16 
19 
18 
15 
14 
23 
22 
16 
13 
27 
18 
19 
22 
14 
17 
