ITEM: TIMESTEP
63000
ITEM: NUMBER OF CELLS
100
ITEM: BOX BOUNDS ss pp pp
0 0.001
0 1e-05
-0.5 0.5
ITEM: CELLS c_particles[1] 
24 
28 
27 
15 
20 
18 
30 
16 
18 
22 
22 
37 
12 
18 
20 
28 
19 
12 
19 
19 
30 
18 
24 
25 
17 
16 
22 
24 
16 
20 
14 
21 
19 
23 
21 
15 
9 
20 
20 
24 
18 
25 
23 
25 
26 
24 
22 
16 
30 
14 
18 
23 
21 
27 
20 
26 
17 
19 
11 
24 
17 
20 
18 
22 
22 
19 
20 
21 
15 
19 
15 
12 
14 
24 
26 
17 
13 
15 
29 
12 
21 
19 
19 
24 
22 
21 
23 
17 
14 
16 
19 
16 
14 
24 
19 
18 
16 
22 
22 
13 
