ITEM: TIMESTEP
27000
ITEM: NUMBER OF CELLS
100
ITEM: BOX BOUNDS ss pp pp
0 0.001
0 1e-05
-0.5 0.5
ITEM: CELLS c_particles[1] 
26 
21 
30 
23 
24 
22 
20 
24 
17 
18 
19 
21 
31 
19 
23 
19 
20 
23 
31 
21 
31 
18 
22 
23 
23 
24 
20 
23 
19 
21 
18 
17 
19 
18 
21 
22 
21 
15 
18 
22 
19 
24 
23 
27 
19 
17 
28 
19 
15 
20 
18 
23 
15 
24 
19 
19 
15 
22 
21 
23 
23 
16 
13 
20 
16 
14 
16 
13 
16 
24 
22 
21 
20 
17 
23 
15 
27 
18 
14 
20 
16 
19 
12 
16 
15 
21 
25 
25 
14 
15 
24 
19 
19 
18 
21 
14 
12 
14 
15 
21 
