ITEM: TIMESTEP
15000
ITEM: NUMBER OF CELLS
100
ITEM: BOX BOUNDS ss pp pp
0 0.001
0 1e-05
-0.5 0.5
ITEM: CELLS c_particles[1] 
21 
21 
21 
20 
14 
19 
27 
17 
24 
33 
35 
23 
26 
24 
23 
25 
21 
18 
18 
26 
20 
23 
24 
20 
19 
25 
12 
16 
23 
26 
24 
26 
19 
22 
20 
22 
23 
25 
23 
19 
16 
13 
16 
22 
18 
25 
18 
22 
20 
23 
20 
24 
18 
21 
18 
16 
13 
24 
22 
17 
16 
11 
17 
21 
20 
16 
17 
25 
10 
17 
17 
9 
20 
14 
20 
17 
23 
19 
17 
22 
27 
17 
19 
24 
21 
11 
9 
12 
16 
26 
15 
26 
18 
21 
22 
20 
17 
17 
19 
22 
