ITEM: TIMESTEP
45000
ITEM: NUMBER OF CELLS
100
ITEM: BOX BOUNDS ss pp pp
0 0.001
0 1e-05
-0.5 0.5
ITEM: CELLS c_particles[1] 
33 
28 
29 
27 
30 
28 
23 
28 
21 
21 
20 
24 
29 
32 
24 
18 
15 
20 
21 
22 
14 
18 
20 
17 
21 
17 
15 
27 
29 
26 
28 
13 
22 
20 
18 
16 
16 
20 
13 
21 
21 
26 
15 
20 
18 
23 
18 
17 
21 
20 
19 
16 
17 
13 
17 
12 
20 
9 
27 
14 
21 
17 
21 
24 
19 
20 
18 
13 
20 
28 
15 
25 
27 
32 
21 
20 
14 
11 
22 
16 
17 
17 
16 
18 
15 
26 
16 
20 
15 
22 
19 
21 
16 
16 
24 
19 
16 
14 
10 
12 
