ITEM: TIMESTEP
61000
ITEM: NUMBER OF CELLS
100
ITEM: BOX BOUNDS ss pp pp
0 0.001
0 1e-05
-0.5 0.5
ITEM: CELLS c_particles[1] 
24 
27 
20 
20 
16 
15 
21 
20 
29 
18 
13 
16 
19 
16 
23 
21 
28 
23 
28 
22 
15 
21 
11 
19 
35 
25 
24 
28 
20 
22 
19 
15 
25 
27 
24 
22 
17 
15 
22 
18 
24 
25 
22 
24 
21 
22 
24 
18 
21 
26 
21 
11 
15 
23 
24 
14 
17 
15 
16 
20 
22 
29 
23 
20 
20 
24 
14 
13 
12 
16 
16 
25 
17 
16 
23 
27 
18 
18 
21 
18 
24 
18 
15 
15 
15 
18 
19 
20 
14 
21 
15 
10 
22 
14 
20 
26 
17 
22 
18 
19 
