ITEM: TIMESTEP
182000
ITEM: NUMBER OF CELLS
100
ITEM: BOX BOUNDS ss pp pp
0 0.001
0 1e-05
-0.5 0.5
ITEM: CELLS c_particles[1] 
22 
30 
24 
20 
24 
14 
23 
20 
24 
18 
25 
24 
23 
22 
19 
16 
20 
19 
24 
25 
18 
20 
22 
16 
25 
24 
17 
14 
13 
21 
28 
20 
25 
26 
21 
20 
27 
20 
26 
14 
15 
19 
21 
16 
25 
23 
21 
18 
24 
30 
16 
18 
20 
16 
29 
19 
11 
21 
18 
18 
20 
25 
21 
23 
20 
16 
16 
20 
11 
19 
21 
18 
16 
21 
17 
20 
21 
18 
27 
18 
21 
20 
16 
25 
16 
12 
17 
20 
18 
20 
20 
16 
11 
24 
24 
25 
9 
16 
15 
16 
