ITEM: TIMESTEP
157000
ITEM: NUMBER OF CELLS
100
ITEM: BOX BOUNDS ss pp pp
0 0.001
0 1e-05
-0.5 0.5
ITEM: CELLS c_particles[1] 
20 
20 
24 
32 
27 
21 
17 
17 
23 
25 
19 
25 
37 
22 
18 
20 
16 
20 
27 
27 
17 
26 
21 
25 
21 
18 
20 
19 
19 
15 
24 
26 
21 
21 
26 
28 
18 
19 
15 
17 
19 
16 
18 
21 
26 
25 
18 
16 
23 
19 
13 
22 
17 
20 
19 
15 
20 
14 
22 
22 
20 
17 
17 
24 
20 
19 
19 
14 
20 
28 
20 
17 
18 
24 
19 
21 
20 
14 
24 
24 
24 
16 
13 
14 
15 
17 
21 
19 
11 
17 
21 
15 
13 
18 
17 
13 
25 
24 
18 
12 
