ITEM: TIMESTEP
118000
ITEM: NUMBER OF CELLS
100
ITEM: BOX BOUNDS ss pp pp
0 0.001
0 1e-05
-0.5 0.5
ITEM: CELLS c_particles[1] 
21 
18 
22 
28 
25 
24 
20 
25 
18 
16 
25 
29 
25 
34 
15 
20 
26 
16 
33 
20 
20 
19 
26 
24 
26 
15 
31 
17 
23 
21 
24 
27 
20 
21 
20 
16 
8 
12 
16 
23 
16 
16 
29 
18 
18 
16 
19 
20 
23 
24 
20 
18 
15 
17 
25 
16 
21 
23 
23 
10 
20 
17 
21 
16 
14 
12 
23 
20 
18 
18 
22 
19 
18 
17 
15 
16 
23 
21 
25 
24 
19 
17 
16 
15 
20 
24 
23 
22 
12 
24 
20 
19 
11 
13 
16 
10 
18 
28 
19 
19 
