ITEM: TIMESTEP
106000
ITEM: NUMBER OF CELLS
100
ITEM: BOX BOUNDS ss pp pp
0 0.001
0 1e-05
-0.5 0.5
ITEM: CELLS c_particles[1] 
24 
23 
25 
26 
24 
24 
25 
15 
21 
14 
23 
21 
24 
27 
29 
16 
28 
25 
23 
28 
18 
19 
20 
20 
19 
22 
26 
22 
21 
14 
26 
21 
25 
29 
23 
20 
21 
19 
14 
21 
23 
23 
18 
18 
17 
13 
11 
21 
32 
19 
19 
17 
23 
10 
22 
19 
24 
20 
17 
16 
25 
10 
30 
14 
19 
24 
14 
20 
14 
28 
21 
20 
17 
19 
20 
16 
16 
16 
22 
12 
12 
21 
9 
16 
23 
19 
22 
17 
22 
16 
23 
16 
12 
19 
15 
16 
24 
15 
18 
21 
