ITEM: TIMESTEP
144000
ITEM: NUMBER OF CELLS
100
ITEM: BOX BOUNDS ss pp pp
0 0.001
0 1e-05
-0.5 0.5
ITEM: CELLS c_particles[1] 
20 
23 
23 
26 
22 
19 
28 
21 
28 
34 
26 
19 
21 
18 
18 
21 
25 
15 
16 
18 
18 
18 
22 
16 
13 
24 
35 
11 
22 
24 
18 
19 
25 
25 
23 
20 
32 
16 
26 
28 
18 
12 
26 
29 
24 
24 
20 
17 
19 
10 
19 
17 
19 
15 
15 
18 
17 
24 
19 
23 
16 
21 
27 
14 
23 
16 
13 
19 
23 
25 
21 
28 
18 
16 
14 
16 
28 
12 
13 
8 
22 
17 
13 
14 
17 
25 
16 
21 
14 
21 
27 
19 
12 
23 
21 
18 
20 
19 
11 
18 
