ITEM: TIMESTEP
83000
ITEM: NUMBER OF CELLS
100
ITEM: BOX BOUNDS ss pp pp
0 0.001
0 1e-05
-0.5 0.5
ITEM: CELLS c_particles[1] 
27 
13 
25 
32 
17 
28 
24 
17 
19 
25 
23 
22 
23 
38 
29 
28 
22 
21 
21 
22 
17 
24 
25 
11 
22 
30 
23 
28 
17 
16 
23 
16 
24 
22 
14 
19 
12 
20 
18 
17 
19 
15 
19 
22 
17 
16 
26 
17 
12 
17 
19 
31 
21 
30 
20 
17 
12 
16 
23 
19 
16 
23 
18 
21 
26 
17 
22 
14 
19 
17 
17 
15 
18 
26 
18 
16 
14 
24 
25 
27 
16 
22 
14 
26 
18 
18 
15 
15 
21 
17 
20 
15 
21 
15 
18 
18 
18 
16 
10 
12 
