ITEM: TIMESTEP
152000
ITEM: NUMBER OF CELLS
100
ITEM: BOX BOUNDS ss pp pp
0 0.001
0 1e-05
-0.5 0.5
ITEM: CELLS c_particles[1] 
23 
27 
19 
24 
28 
12 
21 
19 
20 
19 
20 
19 
21 
31 
17 
22 
16 
11 
24 
24 
30 
21 
16 
23 
20 
16 
19 
20 
34 
19 
26 
24 
18 
14 
16 
18 
24 
20 
24 
19 
22 
16 
25 
24 
15 
19 
30 
25 
10 
22 
18 
21 
18 
26 
23 
20 
12 
18 
16 
25 
25 
14 
19 
17 
25 
19 
13 
12 
20 
18 
16 
20 
18 
26 
13 
16 
24 
22 
16 
16 
19 
14 
21 
22 
9 
18 
21 
24 
17 
23 
18 
22 
15 
23 
21 
19 
28 
15 
19 
20 
