ITEM: TIMESTEP
13000
ITEM: NUMBER OF CELLS
100
ITEM: BOX BOUNDS ss pp pp
0 0.001
0 1e-05
-0.5 0.5
ITEM: CELLS c_particles[1] 
23 
32 
30 
23 
31 
14 
19 
19 
18 
22 
14 
33 
16 
33 
26 
23 
18 
23 
12 
13 
13 
16 
26 
21 
17 
21 
22 
18 
13 
19 
21 
20 
30 
18 
24 
20 
25 
21 
27 
18 
19 
29 
25 
16 
13 
24 
18 
23 
24 
23 
19 
24 
32 
19 
23 
23 
22 
21 
15 
16 
17 
15 
18 
14 
17 
15 
23 
12 
21 
15 
15 
25 
16 
22 
16 
16 
18 
19 
18 
20 
10 
18 
12 
22 
26 
18 
24 
19 
18 
18 
19 
20 
20 
19 
20 
21 
19 
15 
14 
16 
