ITEM: TIMESTEP
67000
ITEM: NUMBER OF CELLS
100
ITEM: BOX BOUNDS ss pp pp
0 0.001
0 1e-05
-0.5 0.5
ITEM: CELLS c_particles[1] 
21 
15 
21 
23 
15 
26 
21 
18 
18 
25 
19 
21 
10 
30 
19 
12 
35 
20 
22 
21 
26 
19 
22 
21 
19 
16 
15 
16 
18 
18 
23 
18 
21 
23 
23 
17 
25 
15 
22 
24 
20 
18 
26 
25 
19 
27 
16 
19 
24 
25 
15 
23 
28 
20 
16 
21 
18 
19 
15 
18 
16 
20 
20 
20 
23 
16 
21 
13 
20 
18 
24 
28 
21 
14 
15 
16 
31 
18 
20 
23 
15 
21 
18 
25 
22 
19 
26 
23 
31 
21 
15 
19 
15 
18 
15 
17 
14 
20 
15 
9 
