ITEM: TIMESTEP
97000
ITEM: NUMBER OF CELLS
100
ITEM: BOX BOUNDS ss pp pp
0 0.001
0 1e-05
-0.5 0.5
ITEM: CELLS c_particles[1] 
28 
21 
32 
20 
23 
18 
21 
30 
20 
21 
24 
23 
14 
23 
20 
21 
19 
24 
19 
23 
23 
21 
20 
18 
10 
24 
25 
23 
23 
25 
23 
22 
14 
25 
23 
19 
21 
13 
11 
24 
27 
21 
19 
24 
22 
18 
14 
21 
18 
22 
23 
28 
17 
19 
15 
27 
17 
20 
24 
20 
20 
16 
22 
21 
18 
15 
16 
16 
25 
21 
12 
21 
18 
21 
18 
22 
24 
16 
21 
17 
16 
18 
20 
23 
20 
17 
16 
15 
9 
13 
18 
19 
28 
14 
19 
17 
21 
14 
22 
14 
