ITEM: TIMESTEP
91000
ITEM: NUMBER OF CELLS
100
ITEM: BOX BOUNDS ss pp pp
0 0.001
0 1e-05
-0.5 0.5
ITEM: CELLS c_particles[1] 
35 
19 
15 
24 
13 
18 
22 
32 
25 
16 
11 
17 
25 
22 
15 
14 
26 
7 
23 
19 
19 
28 
28 
13 
25 
17 
18 
25 
15 
24 
27 
21 
24 
20 
11 
19 
21 
24 
17 
33 
16 
23 
19 
16 
22 
24 
14 
22 
19 
15 
23 
21 
25 
23 
18 
24 
14 
18 
20 
29 
19 
15 
12 
21 
29 
18 
11 
22 
23 
21 
23 
32 
20 
21 
22 
22 
23 
19 
19 
19 
23 
17 
17 
27 
15 
22 
20 
20 
20 
14 
18 
17 
17 
12 
13 
16 
15 
11 
22 
21 
