ITEM: TIMESTEP
62000
ITEM: NUMBER OF CELLS
100
ITEM: BOX BOUNDS ss pp pp
0 0.001
0 1e-05
-0.5 0.5
ITEM: CELLS c_particles[1] 
30 
31 
20 
22 
21 
14 
24 
22 
27 
30 
21 
25 
34 
21 
17 
19 
20 
12 
19 
18 
19 
12 
14 
30 
20 
19 
16 
20 
18 
24 
24 
28 
26 
24 
18 
20 
23 
23 
20 
21 
17 
17 
14 
28 
24 
21 
22 
14 
22 
23 
22 
19 
20 
27 
11 
18 
20 
20 
16 
24 
21 
22 
23 
20 
17 
19 
17 
8 
21 
24 
22 
15 
17 
25 
18 
15 
19 
17 
14 
20 
18 
19 
14 
21 
10 
19 
17 
20 
22 
21 
15 
26 
16 
15 
20 
21 
11 
26 
14 
16 
