ITEM: TIMESTEP
103000
ITEM: NUMBER OF CELLS
100
ITEM: BOX BOUNDS ss pp pp
0 0.001
0 1e-05
-0.5 0.5
ITEM: CELLS c_particles[1] 
27 
25 
42 
22 
24 
16 
20 
15 
21 
17 
25 
17 
23 
18 
29 
16 
26 
22 
23 
22 
18 
20 
17 
16 
22 
31 
19 
22 
25 
20 
21 
24 
32 
24 
20 
18 
19 
26 
15 
25 
23 
15 
14 
20 
24 
31 
18 
15 
24 
23 
13 
20 
8 
12 
22 
18 
17 
14 
22 
15 
15 
23 
17 
23 
13 
19 
23 
18 
29 
17 
18 
20 
17 
14 
22 
20 
16 
15 
19 
15 
25 
20 
25 
14 
20 
22 
19 
15 
22 
20 
12 
25 
14 
12 
21 
25 
14 
17 
16 
17 
