ITEM: TIMESTEP
129000
ITEM: NUMBER OF CELLS
100
ITEM: BOX BOUNDS ss pp pp
0 0.001
0 1e-05
-0.5 0.5
ITEM: CELLS c_particles[1] 
17 
22 
24 
24 
19 
20 
24 
8 
26 
20 
22 
22 
26 
33 
23 
16 
21 
16 
29 
24 
30 
21 
19 
21 
23 
24 
23 
21 
22 
13 
14 
25 
19 
23 
16 
22 
26 
20 
29 
16 
16 
17 
16 
11 
25 
18 
28 
29 
25 
16 
31 
17 
21 
19 
20 
30 
12 
10 
22 
17 
12 
20 
15 
19 
21 
31 
20 
15 
22 
21 
14 
29 
19 
22 
22 
14 
17 
21 
22 
13 
22 
21 
21 
18 
12 
23 
12 
20 
14 
16 
20 
12 
21 
12 
9 
13 
20 
19 
18 
25 
