ITEM: TIMESTEP
142000
ITEM: NUMBER OF CELLS
100
ITEM: BOX BOUNDS ss pp pp
0 0.001
0 1e-05
-0.5 0.5
ITEM: CELLS c_particles[1] 
21 
18 
21 
31 
20 
17 
27 
16 
18 
15 
20 
20 
20 
25 
24 
18 
19 
24 
21 
19 
32 
19 
24 
17 
21 
16 
32 
12 
22 
26 
24 
19 
24 
12 
19 
22 
20 
22 
17 
11 
20 
19 
17 
23 
22 
18 
29 
25 
22 
13 
20 
18 
19 
18 
23 
26 
15 
22 
26 
19 
21 
22 
17 
27 
18 
15 
16 
24 
21 
16 
22 
21 
18 
19 
13 
18 
18 
26 
23 
15 
23 
10 
17 
16 
21 
16 
23 
18 
13 
18 
18 
25 
21 
20 
20 
17 
29 
22 
6 
18 
