ITEM: TIMESTEP
99000
ITEM: NUMBER OF CELLS
100
ITEM: BOX BOUNDS ss pp pp
0 0.001
0 1e-05
-0.5 0.5
ITEM: CELLS c_particles[1] 
19 
23 
27 
23 
28 
24 
20 
22 
25 
17 
17 
16 
19 
15 
31 
16 
23 
18 
22 
20 
32 
17 
23 
19 
17 
27 
18 
24 
15 
23 
23 
26 
27 
27 
15 
20 
15 
17 
21 
25 
28 
20 
18 
22 
21 
19 
17 
16 
20 
16 
22 
25 
22 
15 
18 
27 
20 
23 
27 
15 
14 
26 
21 
19 
13 
18 
23 
14 
20 
14 
20 
25 
17 
26 
19 
16 
23 
18 
11 
13 
26 
11 
17 
22 
14 
21 
18 
19 
11 
17 
14 
19 
19 
25 
16 
16 
21 
11 
22 
24 
