ITEM: TIMESTEP
167000
ITEM: NUMBER OF CELLS
100
ITEM: BOX BOUNDS ss pp pp
0 0.001
0 1e-05
-0.5 0.5
ITEM: CELLS c_particles[1] 
23 
18 
32 
26 
34 
26 
23 
27 
17 
16 
27 
27 
21 
27 
17 
16 
26 
18 
16 
17 
22 
16 
24 
27 
23 
25 
19 
17 
21 
14 
18 
23 
22 
21 
21 
18 
17 
16 
16 
17 
29 
21 
20 
17 
26 
20 
21 
18 
23 
22 
20 
19 
27 
19 
23 
18 
26 
17 
19 
27 
16 
23 
16 
22 
22 
20 
20 
18 
24 
22 
15 
14 
10 
19 
15 
15 
19 
17 
20 
20 
17 
16 
14 
27 
20 
17 
18 
17 
22 
25 
20 
17 
18 
17 
21 
19 
11 
11 
13 
10 
