ITEM: TIMESTEP
121000
ITEM: NUMBER OF CELLS
100
ITEM: BOX BOUNDS ss pp pp
0 0.001
0 1e-05
-0.5 0.5
ITEM: CELLS c_particles[1] 
21 
17 
22 
23 
31 
21 
19 
28 
28 
17 
30 
20 
19 
27 
18 
25 
24 
22 
23 
18 
15 
22 
24 
28 
18 
24 
24 
21 
24 
24 
25 
21 
24 
20 
25 
23 
12 
27 
20 
19 
21 
22 
12 
16 
28 
24 
23 
17 
20 
28 
27 
18 
21 
17 
24 
15 
25 
9 
27 
19 
16 
19 
14 
20 
21 
19 
20 
18 
18 
17 
16 
16 
12 
25 
15 
21 
22 
23 
27 
17 
18 
19 
14 
12 
11 
23 
14 
19 
17 
17 
18 
18 
11 
11 
16 
15 
22 
16 
14 
13 
