ITEM: TIMESTEP
11000
ITEM: NUMBER OF CELLS
100
ITEM: BOX BOUNDS ss pp pp
0 0.001
0 1e-05
-0.5 0.5
ITEM: CELLS c_particles[1] 
25 
32 
20 
21 
24 
24 
28 
28 
21 
21 
25 
23 
28 
32 
23 
26 
20 
22 
22 
27 
20 
26 
17 
24 
26 
20 
18 
18 
22 
19 
19 
22 
27 
25 
21 
21 
18 
24 
28 
18 
25 
26 
16 
16 
23 
25 
24 
24 
21 
19 
18 
10 
14 
14 
16 
20 
18 
13 
19 
26 
15 
20 
14 
19 
13 
19 
14 
12 
19 
18 
22 
11 
13 
16 
12 
16 
27 
13 
10 
17 
14 
14 
27 
18 
21 
16 
18 
9 
19 
17 
12 
19 
21 
21 
21 
24 
18 
19 
23 
17 
