ITEM: TIMESTEP
60000
ITEM: NUMBER OF CELLS
100
ITEM: BOX BOUNDS ss pp pp
0 0.001
0 1e-05
-0.5 0.5
ITEM: CELLS c_particles[1] 
24 
20 
21 
23 
18 
23 
16 
20 
24 
23 
29 
25 
25 
26 
19 
20 
21 
23 
27 
9 
25 
25 
25 
29 
18 
26 
13 
22 
24 
18 
17 
16 
20 
21 
22 
21 
17 
16 
23 
23 
25 
21 
30 
18 
24 
27 
13 
17 
19 
21 
18 
10 
21 
19 
22 
19 
27 
13 
22 
17 
11 
25 
14 
20 
18 
19 
20 
23 
19 
29 
19 
22 
20 
12 
22 
30 
23 
18 
28 
18 
11 
15 
13 
20 
23 
16 
15 
12 
17 
9 
17 
20 
25 
14 
15 
14 
17 
13 
22 
22 
