ITEM: TIMESTEP
138000
ITEM: NUMBER OF CELLS
100
ITEM: BOX BOUNDS ss pp pp
0 0.001
0 1e-05
-0.5 0.5
ITEM: CELLS c_particles[1] 
29 
24 
17 
20 
22 
25 
24 
26 
26 
21 
22 
25 
21 
20 
12 
16 
29 
19 
17 
24 
25 
14 
19 
22 
17 
24 
19 
22 
22 
19 
19 
13 
15 
23 
25 
23 
17 
18 
17 
28 
19 
28 
20 
27 
18 
17 
18 
19 
21 
16 
21 
20 
18 
25 
16 
20 
24 
24 
18 
26 
22 
19 
20 
15 
20 
29 
19 
17 
19 
20 
24 
12 
22 
17 
17 
16 
24 
20 
22 
15 
12 
17 
19 
19 
14 
17 
8 
18 
15 
16 
20 
15 
10 
24 
22 
24 
21 
25 
15 
25 
