ITEM: TIMESTEP
195000
ITEM: NUMBER OF CELLS
100
ITEM: BOX BOUNDS ss pp pp
0 0.001
0 1e-05
-0.5 0.5
ITEM: CELLS f_temp1[*] 
221.334 
226.1 
226.567 
223.37 
229.029 
226.657 
229.164 
224.702 
222.496 
226.879 
224.386 
224.345 
225.47 
228.333 
231.027 
227.166 
231.133 
237.346 
231.942 
238.949 
237.681 
239.317 
245.64 
244.143 
241.676 
248.404 
255.587 
250.283 
247.398 
248.29 
250.726 
253.519 
254.852 
250.909 
257.065 
257.722 
261.479 
261.963 
266.142 
267.235 
259.406 
256.018 
256.99 
265.26 
263.838 
268.884 
268.104 
260.001 
260.65 
265.432 
265.994 
268.426 
272.063 
269.435 
271.568 
276.219 
274.32 
275.029 
273.356 
270.88 
277.371 
275.635 
279.719 
281.754 
281.934 
278.019 
280.631 
279.862 
285.901 
287.298 
286.448 
280.923 
288.271 
284.895 
291.465 
292.019 
296.396 
291.712 
288.723 
282.105 
287.837 
287.438 
295.74 
294.158 
291.753 
282.396 
286.543 
286.7 
283.204 
293.924 
295.045 
293.705 
298.287 
300.83 
297.598 
309.888 
308.93 
306.697 
315.728 
312.148 
