ITEM: TIMESTEP
128000
ITEM: NUMBER OF CELLS
100
ITEM: BOX BOUNDS ss pp pp
0 0.001
0 1e-05
-0.5 0.5
ITEM: CELLS f_temp1[*] 
226.883 
229.377 
229.776 
228.883 
236.297 
239.993 
227.05 
241.357 
242.245 
241.722 
251.95 
249.073 
246.787 
247.006 
248.645 
252.542 
253.557 
254.476 
251.762 
243.024 
246.794 
245.561 
253.339 
251.096 
256.235 
260.432 
259.332 
259.574 
259.271 
257.412 
256.129 
259.332 
258.849 
259.223 
253.67 
256.614 
256.551 
255.179 
259.808 
262.341 
258.434 
255.693 
260.46 
256.718 
259.164 
260.062 
258.886 
265.347 
259.913 
262.725 
268.714 
269.745 
270.787 
278.088 
283.997 
281.873 
280.28 
277.657 
278.379 
280.667 
280.922 
279.043 
277.821 
278.896 
278.796 
275.062 
275.5 
268.508 
268.849 
269.901 
278.279 
281.975 
281.811 
279.746 
283.062 
284.542 
282.343 
287.37 
284.65 
290.617 
284.007 
290.895 
286.052 
281.479 
287.218 
291.711 
292.611 
296.439 
291.422 
291.33 
295.057 
299.697 
298.498 
303.38 
293.334 
301.06 
306.52 
308.673 
308.437 
310.566 
