ITEM: TIMESTEP
105000
ITEM: NUMBER OF CELLS
100
ITEM: BOX BOUNDS ss pp pp
0 0.001
0 1e-05
-0.5 0.5
ITEM: CELLS f_temp1[*] 
233.913 
235.784 
242.044 
237.899 
240.047 
243.297 
250.022 
242.294 
239.592 
238.273 
243.703 
248.513 
250.77 
246.501 
242.861 
248.786 
245.121 
248.478 
257.16 
252.77 
261.841 
243.867 
252.082 
251.482 
256.515 
255.005 
255.349 
248.538 
261.495 
262.03 
263.784 
265.134 
256.088 
256.708 
269.536 
256.151 
253.184 
259.576 
258.926 
262.006 
265.985 
270.735 
256.962 
256.412 
257.592 
260.376 
258.893 
273.493 
270.662 
265.347 
268.097 
259.079 
264.073 
271.061 
271.263 
263.307 
270.543 
274.853 
282.173 
279.402 
284.686 
290.628 
281.604 
260.919 
271.046 
275.719 
275.966 
281.144 
289.516 
296.94 
296.037 
282.441 
280.666 
285.496 
286.181 
279.73 
286.792 
296.341 
292.924 
287.944 
284.988 
291.676 
294.631 
294.578 
287.732 
291.249 
292.777 
295.352 
293.331 
290.148 
294.756 
286.651 
285.859 
294.523 
291.713 
295.315 
292.481 
294.981 
295.824 
303.976 
