ITEM: TIMESTEP
78000
ITEM: NUMBER OF CELLS
100
ITEM: BOX BOUNDS ss pp pp
0 0.001
0 1e-05
-0.5 0.5
ITEM: CELLS f_temp1[*] 
236.905 
235.912 
238.385 
245.578 
242.93 
238.494 
238.354 
239.249 
239.508 
241.825 
247.489 
244.648 
236.209 
236.868 
236.917 
245.057 
246.555 
248.897 
246.655 
245.183 
247.589 
240.904 
245.863 
241.473 
245.351 
247.815 
252.417 
251.487 
256.124 
254.551 
254.902 
252.032 
252.146 
253.661 
250.429 
250.618 
252.279 
253.173 
254 
261.139 
267.616 
262.26 
263.88 
269.735 
262.921 
263.017 
263.627 
267.699 
265.45 
260.417 
265.553 
265.34 
264.665 
271.069 
276.875 
274.009 
277.749 
270.148 
273.531 
272.689 
275.528 
273.074 
285.426 
286.556 
286.186 
283.2 
281.415 
283.946 
282.827 
282.763 
282.688 
286.74 
281.54 
283.137 
286.829 
289.701 
282.636 
289.907 
284.966 
284.608 
283.32 
285.704 
289.496 
284.512 
289.058 
291.188 
304.151 
299.892 
296.901 
300.413 
300.253 
302.409 
303.306 
303.993 
307.006 
301.226 
301.159 
302.298 
306.07 
308.974 
