ITEM: TIMESTEP
192000
ITEM: NUMBER OF CELLS
100
ITEM: BOX BOUNDS ss pp pp
0 0.001
0 1e-05
-0.5 0.5
ITEM: CELLS f_temp1[*] 
230.28 
235.335 
232.161 
241.966 
235.26 
235.989 
243.1 
235.393 
239.383 
241.915 
243.652 
241.415 
238.683 
240.143 
240.758 
238.653 
242.86 
246.497 
250.327 
250.003 
254.316 
254.626 
248.657 
250.682 
250.026 
248.829 
257.643 
259.713 
256.856 
265.271 
263.659 
265.875 
270.23 
271.836 
269.431 
272.263 
274.092 
275.78 
273.213 
271.34 
267.633 
268.736 
268.278 
274.748 
277.724 
274.811 
276.176 
273.349 
272.849 
275.289 
273.259 
277.987 
280.466 
280.045 
271.956 
274.422 
279.793 
277.453 
284.298 
279.702 
275.951 
277.124 
283.13 
279.784 
277.736 
272.204 
272.942 
281.899 
280.961 
284.733 
275.398 
277.429 
281.866 
294.142 
289.787 
289.638 
293.398 
290.7 
295.218 
294.045 
288.949 
288.124 
293.157 
299.303 
295.834 
303.416 
298.099 
307.219 
305.048 
309.728 
307.342 
308.814 
310.978 
310.198 
301.99 
294.51 
304.158 
308.904 
314.217 
313.812 
