ITEM: TIMESTEP
187000
ITEM: NUMBER OF CELLS
100
ITEM: BOX BOUNDS ss pp pp
0 0.001
0 1e-05
-0.5 0.5
ITEM: CELLS f_temp1[*] 
231.488 
233.66 
230.126 
233.571 
236.359 
240.351 
240.781 
243.052 
240.456 
240.905 
241.715 
243.276 
246.503 
242.861 
244.555 
249.464 
250.739 
257.947 
257.691 
256.775 
254.114 
253.566 
251.641 
244.036 
250.209 
251.178 
252.8 
258.582 
266.196 
257.312 
256.104 
254.304 
256.87 
263.154 
257.091 
259.416 
260.295 
263.268 
267.882 
264.911 
263.407 
265.561 
269.14 
275.234 
276.459 
275.178 
267.804 
272.598 
274.175 
266.369 
264.145 
270.946 
278.834 
278.989 
277.551 
278.887 
281.474 
272.978 
275.375 
277.65 
279.28 
288.676 
286.6 
289.125 
288.597 
285.589 
285.044 
285.792 
282.235 
284.9 
291.325 
290.874 
288.66 
290.419 
284.316 
281.268 
286.339 
279.766 
283.924 
280.93 
279.959 
276.766 
284.788 
279.129 
282.049 
285.38 
290.675 
296.41 
294.136 
294.102 
297.698 
298.998 
305.681 
306.136 
309.886 
306.027 
300.202 
302.759 
300.209 
311.768 
