ITEM: TIMESTEP
20000
ITEM: NUMBER OF CELLS
100
ITEM: BOX BOUNDS ss pp pp
0 0.001
0 1e-05
-0.5 0.5
ITEM: CELLS f_temp1[*] 
236.372 
236.034 
237.119 
234.196 
241.794 
237.145 
240.55 
240.007 
240.615 
246.559 
248.094 
244.601 
248.564 
245.583 
257.169 
266.584 
264.336 
261.578 
261.301 
249.19 
249.583 
255.282 
258.553 
257.91 
254.993 
253.635 
255.092 
255.631 
253.474 
250.631 
255.883 
253.112 
255.875 
249.888 
255.004 
251.796 
257.553 
256.294 
263.036 
264.833 
260.944 
269.032 
265.082 
263.375 
267.08 
265.268 
261.753 
262.457 
265.354 
267.83 
273.409 
273.354 
277.55 
275.122 
274.101 
279.569 
278.309 
269.562 
273.433 
280.615 
281.792 
278.922 
279.847 
278.11 
279.688 
280.321 
280.165 
279.291 
278.657 
286.712 
288.598 
294.29 
295.828 
288.663 
290.775 
286.372 
287.313 
284.203 
282.517 
276.447 
287.395 
291.84 
292.571 
295.925 
298.96 
291.733 
300.651 
304.385 
299.398 
302.698 
304.831 
305.468 
300.401 
297.827 
307.929 
311.217 
312.544 
312.35 
308.922 
313.341 
