ITEM: TIMESTEP
163000
ITEM: NUMBER OF CELLS
100
ITEM: BOX BOUNDS ss pp pp
0 0.001
0 1e-05
-0.5 0.5
ITEM: CELLS f_temp1[*] 
223.035 
226.693 
227.144 
224.309 
226.513 
229.326 
227.78 
229.861 
234.302 
235.381 
233.397 
232.721 
236.546 
241.769 
244.77 
244.501 
242.287 
241.116 
243.78 
245.874 
245.715 
249.271 
246.763 
245.922 
244.29 
243.439 
251.849 
252.939 
248.266 
248.36 
252.396 
250.458 
256.501 
256.347 
250.577 
248.802 
254.322 
253.879 
260.615 
259.387 
256.518 
251.637 
261.878 
265.443 
262.507 
266.856 
256.305 
255.545 
259.085 
261.699 
261.21 
262.114 
259.575 
265.717 
266.76 
269.689 
276.088 
277.606 
266.608 
271.096 
269.944 
265.388 
274.632 
278.703 
280.596 
278.399 
279.114 
269.293 
277.409 
279.187 
276.482 
285.786 
275.819 
287.794 
293.476 
288.831 
289.399 
291.869 
297.349 
282.046 
282.039 
283.672 
286.515 
285.022 
288.915 
288.246 
288.417 
292.74 
284.129 
295.97 
295.402 
297.66 
294.282 
301.405 
310.606 
310.062 
304.612 
303.618 
306.551 
303.333 
