ITEM: TIMESTEP
34000
ITEM: NUMBER OF CELLS
100
ITEM: BOX BOUNDS ss pp pp
0 0.001
0 1e-05
-0.5 0.5
ITEM: CELLS f_temp1[*] 
236.453 
234.202 
239.225 
238.758 
243.828 
249.429 
248.092 
261.958 
252.087 
258.14 
251.566 
252.09 
246.526 
253.634 
265.272 
253.747 
255.489 
243.142 
248.446 
255.872 
257.294 
261.867 
254.789 
262.281 
261.52 
253.139 
267.091 
263.853 
255.792 
261.763 
262.147 
265.904 
264.437 
256.249 
256.309 
257.02 
260.058 
260.044 
271.508 
280.689 
279.937 
272.51 
275.053 
277.17 
264.076 
263.239 
269.604 
277.999 
281.697 
278.532 
277.73 
284.663 
283.833 
278.269 
275.332 
285.221 
281.339 
284.49 
276.023 
290.402 
281.461 
285.483 
279.335 
277.297 
273.277 
278.302 
290.209 
281.912 
282.328 
291.437 
288.697 
287.567 
288.839 
290.552 
293.902 
290.47 
283.44 
284.714 
292.087 
298.65 
295.239 
291.757 
288.747 
288.078 
293.71 
288.754 
305.548 
291.569 
298.639 
295.091 
296.806 
302.079 
316.596 
315.492 
301.286 
302.648 
302.78 
312.187 
301.552 
316.381 
