ITEM: TIMESTEP
43000
ITEM: NUMBER OF CELLS
100
ITEM: BOX BOUNDS ss pp pp
0 0.001
0 1e-05
-0.5 0.5
ITEM: CELLS f_temp1[*] 
231.307 
232.489 
232.347 
229.504 
227.765 
227.071 
230.714 
237.39 
245.658 
244.803 
247.538 
248.8 
252.3 
249 
247.394 
251.693 
251.913 
256.669 
258.145 
252.857 
253.598 
254.188 
257.652 
261.895 
270.348 
259.667 
264.761 
265.154 
267.149 
269.119 
269.079 
261.201 
260.078 
259.715 
266.637 
259.3 
257.234 
265.277 
274.924 
275.391 
272.358 
274.565 
278.463 
275.099 
271.645 
270.902 
272.268 
278.715 
286.92 
278.199 
280.244 
282.561 
284.114 
284.564 
287.591 
282.844 
287.823 
290.706 
290.501 
292.857 
295.19 
286.157 
296.8 
304.93 
300.047 
301.45 
299.639 
295.068 
296.641 
301.566 
304.49 
304.943 
302.402 
306.218 
308.698 
303.995 
306.872 
312.056 
315.232 
305.439 
303.267 
299.389 
300.906 
301.426 
307.93 
304.053 
313.825 
309.242 
309.889 
306.217 
310.681 
308.103 
312.283 
308.819 
313.356 
314.647 
311.531 
313.188 
314.495 
317.806 
