ITEM: TIMESTEP
84000
ITEM: NUMBER OF CELLS
100
ITEM: BOX BOUNDS ss pp pp
0 0.001
0 1e-05
-0.5 0.5
ITEM: CELLS f_temp1[*] 
235.796 
236.399 
240.293 
235.776 
237.104 
238.604 
236.561 
243.482 
243.31 
239.762 
243.856 
234.959 
237.29 
242.247 
240.131 
244.536 
242.684 
244.194 
249.895 
260.103 
254.569 
250.867 
248.027 
257.829 
258.88 
262.629 
257.541 
253.457 
256.604 
264.358 
254.833 
258.735 
252.216 
266.015 
265.893 
264.097 
258.92 
264.991 
266.072 
272.892 
269.281 
273.578 
264.119 
272.977 
278.602 
267.663 
263.621 
270.112 
274.42 
276.888 
269.496 
270.043 
291.631 
276.372 
281.552 
277.289 
294.268 
291.295 
292.452 
296.226 
284.84 
291.824 
298.185 
294.318 
295.918 
289.798 
299.67 
285.574 
288.336 
284.955 
302.859 
295.059 
297.084 
293.128 
295.863 
294.442 
297.266 
307.632 
300.249 
309.797 
300.761 
308.655 
291.81 
306.153 
297.061 
295.86 
292.44 
303.895 
307.612 
293.767 
294.867 
305.111 
298.289 
318.352 
318.973 
312.327 
321.936 
325.653 
310.397 
317.938 
