ITEM: TIMESTEP
61000
ITEM: NUMBER OF CELLS
100
ITEM: BOX BOUNDS ss pp pp
0 0.001
0 1e-05
-0.5 0.5
ITEM: CELLS f_temp1[*] 
234.104 
233.634 
238.799 
235.596 
237.337 
238.401 
239.329 
234.144 
229.351 
233.282 
234.646 
242.986 
239.98 
243.193 
245.844 
243.668 
256.929 
238.205 
238.053 
243.5 
245.362 
241.348 
256.041 
242.924 
247.818 
249.038 
251.058 
259.749 
255.657 
251.968 
260.645 
259.913 
262.89 
265.177 
266.006 
255.185 
266.554 
264.258 
273.544 
271.8 
264.11 
263.801 
273.905 
277.22 
272.895 
274.993 
264.642 
269.889 
275.638 
281.72 
274.429 
274.735 
278.928 
279.122 
264.335 
268.361 
279.074 
279.951 
270.774 
263.706 
275.686 
266.711 
276.556 
279.834 
279.231 
270.056 
273.089 
276.01 
285.98 
278.389 
276.953 
276.816 
280.195 
298.057 
283.678 
294.89 
280.486 
292.924 
291.19 
290.15 
290.605 
284.082 
296.089 
297.135 
300.402 
312.264 
294.899 
304.198 
306.462 
309.222 
302.863 
312.343 
304.498 
308.637 
307.577 
301.769 
311.352 
314.673 
318.287 
303.08 
