ITEM: TIMESTEP
161000
ITEM: NUMBER OF CELLS
100
ITEM: BOX BOUNDS ss pp pp
0 0.001
0 1e-05
-0.5 0.5
ITEM: CELLS f_temp1[*] 
231.181 
232.347 
230.651 
230.222 
229.157 
228.539 
235.799 
237.441 
234.39 
233.441 
235.726 
234.678 
239.996 
239.123 
243.197 
240.736 
233.556 
233.058 
235.105 
237.849 
244.166 
239.119 
245.137 
251.194 
249.798 
250.159 
247.69 
249.275 
255.628 
255.233 
259.479 
257.226 
252.853 
259.245 
253.117 
258.121 
264.065 
264.414 
262.888 
258.011 
251.915 
254.715 
256.325 
258.419 
257.764 
264.759 
273.657 
268.692 
266.216 
272.646 
267.274 
271.02 
268.798 
274.548 
275.03 
274.423 
270.501 
275.687 
277.308 
277.864 
276.923 
280.372 
284.065 
281.338 
283.118 
281.666 
279.179 
282.014 
281.266 
283.957 
284.523 
279.337 
283.312 
293.534 
294.122 
293.228 
291.371 
285.641 
293.218 
288.086 
287.986 
290.353 
288.728 
287.106 
299.745 
293.376 
294.163 
294.029 
290.769 
293.559 
297.511 
300.038 
302.221 
295.371 
299.285 
304.403 
306.398 
306.451 
303.458 
300.926 
