ITEM: TIMESTEP
120000
ITEM: NUMBER OF CELLS
100
ITEM: BOX BOUNDS ss pp pp
0 0.001
0 1e-05
-0.5 0.5
ITEM: CELLS f_temp1[*] 
229.516 
234.349 
236.608 
237.119 
240.354 
239.973 
231.729 
230.508 
239.982 
239.804 
239.865 
242.881 
243.496 
243.295 
244.523 
244.3 
245.904 
245.024 
251.365 
252.698 
254.552 
253.443 
248.107 
248.369 
253.221 
246.019 
248.739 
250.825 
247.014 
244.289 
244.649 
256.119 
259.292 
253.782 
256.535 
255.508 
254.168 
256.606 
260.195 
259.585 
259.068 
263.229 
272.202 
265.151 
265.95 
270.687 
270.359 
274.601 
273.668 
277.147 
272.687 
274.945 
278.373 
276.338 
277.849 
278.073 
276.029 
275.862 
275.595 
272.48 
281.305 
283.311 
285.953 
280.221 
284.634 
291.538 
294.226 
287.028 
298.681 
295.109 
295.941 
295.322 
303.54 
305.381 
298.601 
303.952 
294.387 
305.855 
302.156 
301.117 
295.655 
308.663 
313.446 
308.184 
310.922 
317.949 
305.523 
312.755 
317.168 
308.67 
307.933 
301.634 
306.635 
313.792 
308.913 
312.224 
309.522 
313.69 
305.987 
313.998 
