ITEM: TIMESTEP
38000
ITEM: NUMBER OF CELLS
100
ITEM: BOX BOUNDS ss pp pp
0 0.001
0 1e-05
-0.5 0.5
ITEM: CELLS f_temp1[*] 
243.282 
241.625 
238.338 
242.208 
244.783 
249.905 
237.967 
245.636 
240.729 
241.603 
234.82 
241.271 
245.229 
238.66 
239.498 
241.237 
248.589 
243.499 
260.633 
257.173 
255.745 
258.478 
251.517 
247.128 
255.205 
260.493 
259.571 
256.049 
262.544 
265.018 
254.612 
262.195 
265.452 
265.134 
255.989 
249.241 
259.378 
263.111 
259.793 
258.745 
264.724 
259.795 
257.881 
260.189 
267.572 
263.289 
277.057 
266.234 
263.901 
275.138 
278.451 
282.265 
281.366 
280.342 
279.675 
269.146 
271.233 
274.554 
282.228 
287.147 
277.969 
281.776 
280.006 
282.132 
276.778 
283.736 
278.451 
279.288 
275.715 
275.745 
292.079 
292.905 
285.204 
301.335 
285.649 
289.078 
296.906 
292.659 
290.434 
294.884 
283.469 
290.889 
284.163 
298.98 
291.398 
292.561 
300.305 
290.182 
298.794 
298.551 
296.778 
301.285 
287.34 
292.484 
293.214 
294.698 
305.271 
306.642 
306.721 
299.929 
