ITEM: TIMESTEP
184000
ITEM: NUMBER OF CELLS
100
ITEM: BOX BOUNDS ss pp pp
0 0.001
0 1e-05
-0.5 0.5
ITEM: CELLS f_temp1[*] 
240.177 
232.8 
234.509 
235.452 
241.443 
239.724 
243.232 
248.584 
246.611 
247.958 
244.357 
253.447 
239.933 
257.737 
249.698 
255.401 
258.718 
245.34 
253.288 
258.754 
247.997 
254.039 
250.061 
265.44 
266.709 
264.448 
268.597 
265.385 
257.937 
258.91 
263.438 
273.76 
268.174 
265.913 
262.121 
264.748 
272.408 
261.796 
255.567 
270.108 
267.914 
260.577 
267.556 
264.626 
268.696 
272.183 
263.703 
273.586 
278.18 
271.596 
280.878 
277.409 
271.364 
277.7 
289.858 
284.151 
277.067 
280.271 
284.058 
290.578 
287.432 
287.385 
276.091 
280.879 
284.305 
279.424 
287.894 
275.985 
284.353 
293.072 
290.939 
287.11 
290.989 
285.495 
285.036 
283.389 
295.104 
299.406 
286.466 
290.944 
296.855 
301.143 
287.111 
298.019 
292.59 
295.118 
291.347 
305.911 
297.721 
305.576 
304.332 
308.289 
300.087 
311.191 
305.149 
300.453 
312.557 
309.96 
317.982 
307.148 
