ITEM: TIMESTEP
194000
ITEM: NUMBER OF CELLS
100
ITEM: BOX BOUNDS ss pp pp
0 0.001
0 1e-05
-0.5 0.5
ITEM: CELLS f_temp1[*] 
238.742 
230.771 
243.206 
236.747 
243.38 
235.539 
237.474 
247.75 
240.391 
237.971 
241.898 
238.747 
249.309 
241.123 
247.747 
245.004 
248.392 
244.383 
252.347 
250.06 
243.807 
250.125 
256.892 
259.78 
255.832 
250.947 
250.691 
246.96 
249.173 
260.28 
259.466 
266.515 
271.449 
267.052 
269.808 
262.566 
263.412 
262.299 
261.535 
266.544 
267.25 
268.143 
267.799 
265.507 
261.446 
267.681 
262.435 
258.146 
254.226 
260.528 
262.243 
257.244 
264.375 
256.458 
250.603 
270.023 
266.616 
271.164 
272.469 
271.739 
291.739 
280.766 
287.631 
271.057 
275.847 
286.431 
279.672 
282.582 
283.215 
280.984 
273.715 
277.145 
276.908 
281.559 
275.398 
282.264 
291.458 
284.747 
296.519 
287.662 
285.64 
295.039 
284.841 
295.448 
290.018 
293.047 
289.538 
291.013 
280.078 
288.855 
297.357 
301.279 
299.995 
296.83 
302.648 
312.014 
292.719 
303.37 
302.446 
308.112 
