ITEM: TIMESTEP
122000
ITEM: NUMBER OF CELLS
100
ITEM: BOX BOUNDS ss pp pp
0 0.001
0 1e-05
-0.5 0.5
ITEM: CELLS f_temp1[*] 
233.519 
237.721 
234.397 
234.67 
233.954 
236.163 
240.327 
243.01 
242.272 
245.09 
243.186 
243.56 
246.918 
245.606 
248.26 
246.426 
248.727 
252.376 
251.693 
253.461 
257.621 
256.643 
265.507 
263.699 
261.272 
263.97 
260.833 
254.126 
256.485 
265.554 
269.048 
268.118 
270.582 
268.968 
268.088 
268.351 
272.808 
271.326 
274.076 
276.815 
276.078 
287.302 
280.366 
280.501 
281.998 
281.894 
280.622 
281.73 
280.854 
279.459 
270.465 
278.754 
284.984 
285.899 
282.656 
274.932 
281.681 
282.935 
277.12 
282.764 
289.815 
291.889 
293.056 
281.401 
278.143 
283.792 
293.927 
299.689 
298.223 
294.897 
291.314 
290.71 
292.735 
291.694 
293.265 
292.88 
300.953 
297.802 
297.483 
302.236 
305.562 
300.788 
305.868 
302.97 
301.097 
307.569 
307.811 
310.623 
312.566 
319.052 
320.426 
323.169 
317.749 
320.937 
317.989 
321.486 
310.002 
307.988 
308.33 
311.838 
