ITEM: TIMESTEP
107000
ITEM: NUMBER OF CELLS
100
ITEM: BOX BOUNDS ss pp pp
0 0.001
0 1e-05
-0.5 0.5
ITEM: CELLS f_temp1[*] 
232.825 
237.955 
233.044 
244.737 
244.99 
243.554 
244.73 
247.147 
244.253 
243.889 
241.232 
239.742 
241.857 
246.651 
237.096 
250.721 
251.11 
252.111 
253.378 
244.139 
247.124 
254.96 
249.226 
249.654 
244.45 
252.545 
266.881 
254.467 
256.944 
255.344 
259.439 
271.28 
266.534 
282.986 
263.519 
260.456 
266.352 
266.923 
272.302 
292.018 
284.922 
290.579 
276.05 
282.322 
282.79 
278.501 
271.224 
274.474 
264.374 
275.599 
283.991 
268.521 
271.88 
263.339 
268.189 
262.156 
274.463 
277.735 
280.848 
279.513 
274.18 
269.752 
280.798 
285.75 
277.819 
280.715 
282.29 
284.978 
272.81 
273.489 
279.662 
274.972 
292.022 
276.131 
289.271 
289.858 
287.16 
291.42 
290.715 
285.217 
288.502 
301.935 
298.881 
286.286 
287.606 
297.096 
301.559 
299.485 
311.425 
305.664 
310.185 
306.334 
296.75 
306.987 
288.123 
295.399 
302.88 
303.776 
304.98 
305.532 
