ITEM: TIMESTEP
154000
ITEM: NUMBER OF CELLS
100
ITEM: BOX BOUNDS ss pp pp
0 0.001
0 1e-05
-0.5 0.5
ITEM: CELLS f_temp1[*] 
229.937 
228.159 
237.532 
236.97 
240.943 
245.783 
248.667 
243.415 
244.231 
241.923 
233.476 
240.39 
250.495 
249.635 
248.793 
252.478 
252.184 
256.922 
257.307 
244.841 
251.658 
260.794 
258.21 
262.377 
259.514 
267.475 
260.637 
263.433 
257.391 
261.417 
260.414 
278.686 
264.674 
265.318 
262.54 
270.201 
262.621 
255.801 
266.534 
266.171 
262.255 
267.715 
263.409 
270.622 
265.42 
268.059 
274.543 
275.817 
266.382 
267.889 
273.335 
272.249 
272.389 
274.265 
268.256 
277.648 
280.603 
285.77 
282.922 
280.262 
282.863 
279.414 
288.235 
285.457 
282.263 
283.134 
285.388 
296.047 
292.693 
305.683 
288.334 
302.125 
292.212 
303.384 
287.43 
287.837 
292.608 
300.108 
299.782 
296.55 
299.193 
303.914 
310.271 
303.179 
293.596 
313.906 
312.257 
309.89 
316.293 
299.944 
313.468 
318.007 
316.376 
313.357 
320.373 
329.017 
317.72 
313.663 
320.449 
308.97 
