ITEM: TIMESTEP
193000
ITEM: NUMBER OF CELLS
100
ITEM: BOX BOUNDS ss pp pp
0 0.001
0 1e-05
-0.5 0.5
ITEM: CELLS f_temp1[*] 
236.486 
233.027 
229.903 
233.597 
232.796 
234.412 
235.017 
239.662 
242.827 
245.2 
244.899 
243.346 
242.901 
245.341 
247.355 
245.011 
243.394 
242.566 
246.092 
248.532 
254.311 
250.274 
248.122 
258.862 
257.904 
260.194 
264.269 
258.308 
260.799 
260.152 
257.411 
265.437 
258.703 
254.976 
261.568 
268.136 
270.689 
270.487 
274.927 
265.905 
267.124 
267.138 
270.703 
275.408 
269.457 
270.437 
270.163 
275.925 
269.691 
271.176 
270.958 
277.708 
279.275 
281.029 
285.073 
288.289 
289.4 
288.618 
280.31 
282.707 
284.315 
283.222 
286.705 
288.774 
280.874 
291.643 
287.076 
283.125 
278.201 
282.802 
280.191 
286.429 
291.568 
296.546 
297.272 
296.407 
299.421 
301.329 
311.099 
302.884 
301.148 
298.522 
303.022 
304.013 
297.074 
293.286 
304.925 
298.706 
303.139 
300.734 
299.075 
293.688 
302.364 
308.565 
307.874 
309.165 
314.196 
310.276 
306.636 
315.312 
