ITEM: TIMESTEP
167000
ITEM: NUMBER OF CELLS
100
ITEM: BOX BOUNDS ss pp pp
0 0.001
0 1e-05
-0.5 0.5
ITEM: CELLS f_temp1[*] 
230.059 
223.999 
232.594 
232.807 
235.416 
231.294 
237.377 
241.424 
238.997 
237.196 
243.117 
247.06 
240.256 
253.034 
249.2 
255.849 
249.518 
248.339 
247.043 
255.542 
252.896 
253.633 
252.361 
254.208 
258.113 
252.233 
250.232 
253.059 
256.83 
255.479 
260.023 
253.388 
249.202 
276.953 
257.377 
265.522 
264.069 
250.938 
268.363 
265.17 
261.274 
262.942 
254.402 
261.492 
254.19 
268.319 
263.156 
272.592 
275.314 
273.301 
272.379 
265.267 
270.623 
272.441 
271.784 
270.79 
279.976 
285.356 
282.38 
274.474 
272.585 
261.175 
268.03 
274.979 
278.047 
284.34 
281.974 
283.393 
289.856 
285.109 
289.9 
292.504 
285.29 
287.549 
288.28 
285.84 
303.341 
292.349 
293.897 
289.66 
292.646 
302.615 
292.626 
294.855 
287.897 
302.334 
308.639 
303.049 
300.469 
291.24 
305.846 
305.912 
308.709 
310.377 
324.438 
296.007 
308.186 
306.591 
308.907 
305.506 
