ITEM: TIMESTEP
198000
ITEM: NUMBER OF CELLS
100
ITEM: BOX BOUNDS ss pp pp
0 0.001
0 1e-05
-0.5 0.5
ITEM: CELLS f_temp1[*] 
229.336 
228.918 
229.494 
230.091 
236.914 
241.166 
243.809 
238.398 
242.958 
245.532 
242.499 
241.036 
242.29 
239.256 
243.121 
243.235 
243.474 
247.784 
241.549 
245.092 
252.036 
253.525 
255.155 
247.939 
254.426 
251.362 
257.24 
259.772 
255.116 
256.954 
251.037 
255.986 
254.443 
259.52 
261.623 
258.673 
259.492 
267.089 
261.282 
255.917 
267.075 
256.799 
262.479 
270.561 
264.078 
271.95 
273.983 
271.094 
265.745 
261.464 
269.735 
261.947 
265.962 
264.766 
269.497 
277.133 
269.073 
272.025 
280.214 
280.758 
284.155 
280.516 
279.397 
281.359 
274.989 
286.331 
291.028 
279.717 
288.47 
287.037 
282.224 
290.345 
289.168 
297.089 
301.628 
301.492 
299.384 
295.438 
296.683 
293.803 
294.291 
306.974 
308.637 
304.108 
317.615 
296.009 
288.992 
293.414 
301.736 
296.873 
293.941 
307.222 
306.792 
295.246 
300.068 
311.705 
303.394 
308.966 
296.635 
311.82 
