ITEM: TIMESTEP
190000
ITEM: NUMBER OF CELLS
100
ITEM: BOX BOUNDS ss pp pp
0 0.001
0 1e-05
-0.5 0.5
ITEM: CELLS f_temp1[*] 
233.128 
234.031 
232.516 
231.705 
233.599 
239.042 
245.305 
236.153 
242.715 
239.241 
244.964 
247.619 
234.515 
252.084 
248.83 
247.532 
260.007 
245.09 
254.374 
248.808 
253.86 
251.39 
240.608 
250.12 
248.562 
245.417 
247.919 
253.334 
261.922 
242.096 
248.661 
253.143 
251.175 
254.012 
259.816 
258.955 
262.229 
263.008 
257.707 
265.208 
269.366 
275.657 
267.406 
263.677 
270.33 
264.628 
273.722 
264.924 
277.702 
273.667 
283.746 
269.084 
268.733 
265.727 
276.5 
275.492 
273.256 
283.235 
281.965 
280.249 
286.49 
293.569 
286.332 
289.389 
286.708 
301.024 
287.145 
279.736 
285.617 
288.138 
294.256 
292.426 
303.509 
293.675 
284.027 
289.269 
275.683 
296.93 
283.934 
305.489 
285.496 
285.459 
269.831 
286.869 
288.8 
302.314 
289.821 
291.585 
298.957 
298.805 
301.697 
314.562 
295.104 
303.588 
293.874 
305.064 
305.587 
313.46 
318.761 
304.392 
