ITEM: TIMESTEP
170000
ITEM: NUMBER OF CELLS
100
ITEM: BOX BOUNDS ss pp pp
0 0.001
0 1e-05
-0.5 0.5
ITEM: CELLS f_temp1[*] 
236.376 
237.985 
234.729 
234.945 
236.282 
235.267 
244.208 
246.428 
238.933 
242.383 
246.949 
248.522 
245.54 
243.012 
241.423 
246.821 
249.205 
248.449 
250.778 
249.366 
239.443 
240.642 
246.382 
250.685 
242.071 
244.551 
248.553 
251.747 
249.425 
250.644 
246.401 
252.305 
257.074 
252.183 
259.589 
258.175 
259.571 
264.757 
258.172 
259.792 
266.244 
274.273 
259.059 
254.344 
260.294 
262.822 
262.684 
263.725 
264.809 
278.092 
263.853 
272.788 
268.777 
277.45 
275.772 
278.923 
267.533 
271.789 
271.022 
280.878 
280.728 
287.46 
272.035 
284.575 
283.721 
282.967 
279.681 
274.183 
279.93 
282.643 
277.806 
274.068 
265.28 
281.788 
267.327 
268.2 
270.277 
272.182 
261.46 
283.72 
277.15 
289.099 
285.019 
283.082 
284.62 
285.777 
284.244 
283.883 
293.721 
295.601 
294.877 
298.383 
286.454 
300.984 
299.029 
301.201 
311.774 
315.926 
306.184 
326.859 
