ITEM: TIMESTEP
173000
ITEM: NUMBER OF CELLS
100
ITEM: BOX BOUNDS ss pp pp
0 0.001
0 1e-05
-0.5 0.5
ITEM: CELLS f_temp1[*] 
231.481 
234.804 
225.165 
227.19 
226.176 
235.644 
231.682 
238.501 
236.747 
236.045 
240.143 
245.17 
244.153 
252.86 
249.452 
249.176 
251.724 
253.88 
250.114 
245.499 
240.131 
250.59 
244.705 
256.924 
253.57 
252.662 
243.801 
255.147 
256.951 
257.564 
259.205 
266.461 
257.559 
251.651 
254.461 
251.283 
255.216 
254.987 
264.335 
260.051 
255.025 
263.443 
260.216 
258.256 
269.041 
264.06 
270.794 
263.516 
271.522 
272.107 
275.852 
268.243 
275.765 
275.279 
278.85 
281.298 
272.34 
288.296 
281.857 
278.182 
284.339 
289.767 
288.48 
277.927 
274.113 
279.621 
286.031 
282.372 
286.656 
286.421 
271.727 
290.097 
285.191 
290.86 
294.035 
297.196 
285.947 
289.839 
279.558 
284.489 
292.152 
283.292 
290.296 
288.197 
296.552 
286.35 
290.694 
288.217 
290.884 
288.725 
287.952 
300.642 
299.174 
294.672 
296.657 
309.759 
301.396 
298.329 
302.019 
302.779 
