ITEM: TIMESTEP
107000
ITEM: NUMBER OF CELLS
100
ITEM: BOX BOUNDS ss pp pp
0 0.001
0 1e-05
-0.5 0.5
ITEM: CELLS f_temp1[*] 
233.321 
234.838 
233.431 
246.659 
244.416 
247.819 
243.794 
244.437 
242.49 
243.95 
241.723 
242.582 
242.757 
240.574 
241.437 
246.424 
254.378 
255.556 
250.792 
244.24 
249.229 
251.467 
248.271 
248.911 
250.096 
253.149 
259.939 
255.218 
254.435 
262.36 
258.988 
268.906 
271.17 
274.569 
266.153 
266.351 
263.564 
266.05 
277.026 
282.927 
288.323 
289.957 
284.736 
281.213 
278.056 
274.884 
268.918 
276.393 
270.794 
278.249 
281.022 
270.198 
264.148 
264.031 
267.478 
269.767 
272.444 
279.822 
274.847 
280.396 
275.928 
271.536 
283.918 
280.986 
276.734 
283.16 
284.886 
280.502 
274.09 
276.353 
277.387 
280.172 
285.64 
279.946 
286.972 
289.84 
290.481 
289.488 
291.239 
287.233 
290.601 
299.532 
294.457 
292.7 
289.855 
293.37 
303.712 
303.229 
307.769 
303.364 
306.991 
307.312 
300.077 
303.096 
295.223 
293.12 
299.89 
307.488 
303.674 
307.559 
