ITEM: TIMESTEP
8000
ITEM: NUMBER OF CELLS
100
ITEM: BOX BOUNDS ss pp pp
0 0.001
0 1e-05
-0.5 0.5
ITEM: CELLS f_temp1[*] 
235.677 
240.987 
226.547 
222.453 
233.22 
228.896 
231.173 
230.441 
257.236 
245.938 
247.981 
248.462 
241.499 
251.333 
245.175 
246.627 
253.075 
250.652 
243.863 
240.255 
246.577 
248.445 
259.751 
258.175 
260.091 
267.42 
258.082 
257.362 
267.13 
260.48 
258.454 
261.332 
266.817 
260.895 
257.076 
262.063 
259.946 
263.864 
258.521 
279.131 
269.478 
261.002 
271.56 
276.763 
284.359 
278.522 
279.001 
282.218 
277.93 
275.805 
284.802 
277.677 
269.334 
281.505 
279.047 
285.978 
265.368 
279.712 
275.752 
276.419 
267.918 
281.202 
274.771 
288.355 
285.373 
286.389 
276.312 
287.829 
288.738 
284.594 
275.992 
279.287 
291.548 
290.424 
286.333 
280.475 
283.483 
287.639 
298.081 
293.112 
286.821 
288.554 
296.501 
302.251 
287.398 
300.609 
304.839 
291.848 
295.727 
288.893 
283.479 
297.66 
292.858 
288.597 
293.619 
294.809 
308.816 
310.122 
314.495 
300.836 
