ITEM: TIMESTEP
84000
ITEM: NUMBER OF CELLS
100
ITEM: BOX BOUNDS ss pp pp
0 0.001
0 1e-05
-0.5 0.5
ITEM: CELLS f_temp1[*] 
237.979 
235.331 
238.897 
236.606 
236.797 
240.468 
240.181 
239.68 
243.425 
240.879 
240.997 
237.432 
236.551 
241.557 
240.867 
244.965 
243.104 
243.79 
252.295 
255.625 
256.629 
248.034 
249.798 
255.704 
262.931 
260.348 
254.852 
257.464 
256.61 
259.406 
261.083 
256.886 
255.601 
263.676 
259.484 
265.64 
263.809 
267.129 
263.334 
271.249 
270.12 
271.733 
272.181 
271.231 
272.235 
269.532 
265.647 
268.344 
274.591 
275.145 
271.992 
272.775 
283.707 
280.938 
281.061 
283.143 
289.961 
291.539 
292.767 
290.182 
291.488 
289.871 
297.584 
294.415 
294.732 
292.19 
294.013 
286.536 
287.465 
293.955 
296.522 
296.18 
296.414 
292.195 
293.257 
295.192 
302.723 
302.565 
304.141 
304.378 
308.641 
302.267 
294.093 
304.637 
300.718 
294.817 
295.132 
299.255 
303.329 
296.67 
296.722 
304.913 
303.067 
313.37 
313.04 
315.844 
326.171 
321.03 
317.215 
314.078 
