ITEM: TIMESTEP
190000
ITEM: NUMBER OF CELLS
100
ITEM: BOX BOUNDS ss pp pp
0 0.001
0 1e-05
-0.5 0.5
ITEM: CELLS f_temp1[*] 
232.933 
231.394 
234.061 
235.002 
231.283 
240.092 
241.803 
240.244 
240.459 
241.85 
240.919 
247.257 
241.338 
249.479 
247.096 
247.673 
255.165 
252.971 
252.447 
248.772 
250.15 
248.738 
246.656 
250.139 
247.665 
244.404 
248.963 
254.281 
255.569 
245.308 
249.211 
254.788 
249.944 
256.207 
256.943 
261.95 
260.642 
262.569 
259.02 
264.247 
270.841 
274.053 
268.025 
258.693 
270.905 
269.405 
271.709 
269.302 
274.164 
277.394 
277.561 
268.889 
269.07 
270.22 
271.418 
275.049 
278.098 
281.559 
280.266 
280.347 
287.607 
288.832 
290.876 
287.794 
290.089 
296.886 
285 
282.956 
285.668 
288.781 
293.047 
300.112 
291.035 
295.442 
288.536 
282.145 
286.137 
295.24 
284.987 
296.616 
290.013 
285.219 
278.053 
283.82 
288.313 
294.202 
294.728 
296.131 
295.26 
303.107 
300.6 
307.105 
297.201 
301.862 
300.319 
305.548 
305.484 
310.822 
313.433 
313.69 
