ITEM: TIMESTEP
21000
ITEM: NUMBER OF CELLS
100
ITEM: BOX BOUNDS ss pp pp
0 0.001
0 1e-05
-0.5 0.5
ITEM: CELLS f_temp1[*] 
234.644 
242.113 
236.915 
240.644 
244.192 
240.674 
238.659 
241.018 
244.042 
242.501 
243.179 
245.642 
245.297 
246.511 
244.983 
247.05 
247.844 
244.357 
241.916 
252.854 
262.162 
260.443 
258.126 
260.123 
256.077 
253.174 
265.146 
258.279 
256.996 
261.99 
261.913 
273.402 
270.339 
268.503 
267.565 
271.304 
266.053 
262.578 
261.895 
265.054 
268.25 
265.053 
255.463 
267.486 
260.497 
259.391 
264.225 
270.165 
269.457 
266.686 
267.466 
271.784 
262.363 
278.156 
262.6 
272.174 
275.609 
282.211 
264.434 
269.858 
273.317 
277.609 
278.267 
275.224 
278.638 
275.432 
279.072 
284.363 
287.509 
280.206 
287.955 
294.774 
294.04 
294.204 
291.171 
297.725 
296.501 
300.478 
289.479 
293.887 
297.137 
295.336 
290.359 
298.003 
295.996 
284.548 
291.741 
290.879 
297.815 
307.576 
304.895 
316.073 
308.369 
306.959 
314.579 
308.144 
306.035 
312.193 
305.653 
303.223 
