ITEM: TIMESTEP
176000
ITEM: NUMBER OF CELLS
100
ITEM: BOX BOUNDS ss pp pp
0 0.001
0 1e-05
-0.5 0.5
ITEM: CELLS f_temp1[*] 
232.723 
229.151 
231.471 
240.159 
246.459 
247.251 
238.432 
246.392 
246.226 
254.91 
250.611 
257.632 
250.236 
246.78 
255.135 
251.829 
249.626 
258.021 
263.048 
269.165 
277.631 
259.27 
266.206 
269.11 
269.291 
282.854 
269.029 
262.687 
267.322 
267.816 
268.759 
268.868 
269.786 
269.58 
269.644 
258.511 
264.554 
278.28 
269.592 
271.821 
280.972 
270.181 
286.547 
274.839 
270.576 
276.349 
284.692 
269.351 
280.405 
288.727 
289.285 
277.886 
279.236 
277.306 
282.43 
273.74 
286.813 
284.56 
281.533 
277.373 
280.574 
294.44 
287.539 
278.085 
284.744 
288.286 
296.685 
283.115 
283.338 
286.062 
288.8 
285.893 
291.126 
301.651 
285.717 
286.71 
295.327 
295.041 
302.638 
309.189 
299.088 
298.633 
296.066 
299.34 
298.669 
289.148 
296.659 
289.475 
305.947 
296.825 
298.62 
302.549 
303.583 
307.751 
306.727 
311.053 
313.42 
315.161 
319.494 
314.834 
