ITEM: TIMESTEP
127000
ITEM: NUMBER OF CELLS
100
ITEM: BOX BOUNDS ss pp pp
0 0.001
0 1e-05
-0.5 0.5
ITEM: CELLS f_temp1[*] 
235.031 
241.139 
235.062 
243.905 
239.085 
238.415 
242.082 
245.739 
240.617 
247.347 
240.643 
240.748 
243.483 
237.931 
242.437 
245.269 
243.143 
245.672 
244.699 
250.21 
250.389 
245.565 
245.081 
250.583 
250.337 
251.143 
256.453 
258.393 
256.527 
260.283 
261.769 
269.483 
266.862 
268.573 
273.058 
271.451 
268.047 
268.421 
266.494 
272.859 
277.249 
271.993 
268.12 
264.706 
271.89 
273.298 
269.197 
274.473 
269.47 
276.755 
276.207 
275.274 
272.886 
271.212 
265.689 
263.162 
266.216 
274.361 
273.555 
271.199 
271.202 
270.63 
274.615 
281.402 
281.088 
284.223 
278.523 
282.348 
276.634 
283.633 
283.034 
287.081 
286.366 
286.612 
280.286 
287.005 
287.321 
288.754 
288.436 
284.29 
291.954 
291.41 
293.302 
289.333 
289.63 
290.86 
289.116 
295.973 
294.414 
298.024 
302.189 
306.093 
304.216 
300.051 
302.01 
308.334 
303.321 
308.12 
312.997 
310.061 
