ITEM: TIMESTEP
172000
ITEM: NUMBER OF CELLS
100
ITEM: BOX BOUNDS ss pp pp
0 0.001
0 1e-05
-0.5 0.5
ITEM: CELLS f_temp1[*] 
219.663 
222.688 
223.837 
230.782 
232.119 
232.929 
235.07 
235.138 
240.135 
237.214 
237.465 
244.692 
242.314 
244.082 
238.603 
238.383 
239.179 
241.446 
247.334 
250.815 
249.096 
250.477 
250.348 
253.738 
258.785 
258.152 
250.391 
252.958 
250.959 
255.307 
257.632 
252.834 
256.868 
253.549 
254.715 
255.579 
260.34 
262.797 
264.592 
264.415 
261.815 
260.829 
267.281 
260.536 
259.722 
264.009 
261.091 
267.341 
273.254 
271.995 
273.428 
273.097 
272.342 
271.321 
271.788 
274.814 
275.142 
277.121 
276.019 
275.656 
278.378 
286.119 
290.563 
292.407 
283.869 
287.798 
285.103 
281.293 
284.589 
280.394 
289.165 
283.362 
288.815 
290.404 
291.171 
287.09 
295.659 
294.77 
292.215 
292.019 
298.836 
295.906 
294.214 
294.728 
299.456 
302.157 
298.872 
304.397 
303.07 
307.63 
306.904 
307.135 
304.702 
305.344 
304.629 
310.912 
318.718 
312.316 
306.133 
307.884 
