ITEM: TIMESTEP
114000
ITEM: NUMBER OF CELLS
100
ITEM: BOX BOUNDS ss pp pp
0 0.001
0 1e-05
-0.5 0.5
ITEM: CELLS f_temp1[*] 
228.974 
234.948 
240.497 
239.914 
246.434 
247.976 
242.653 
247.214 
244.158 
242.079 
242.655 
251.156 
244.531 
244.196 
252.906 
255.517 
245.948 
251.93 
250.474 
259.543 
247.516 
254.63 
243.798 
252.756 
251.525 
261.153 
253.107 
272.326 
271.159 
266.003 
268.375 
259.384 
262.259 
266.475 
263.387 
262.392 
263.464 
264.988 
265.334 
259.562 
262.42 
267.45 
258.154 
259.4 
271.377 
262.255 
264.113 
267.525 
275.935 
262.061 
276.563 
277.961 
265.01 
271.206 
265.336 
267.882 
275.037 
273.234 
277.305 
272.967 
271.447 
275.137 
268.089 
265.172 
270.998 
278.474 
266.908 
284.055 
277.229 
276.365 
275.935 
286.135 
284.41 
282.562 
289.257 
291.667 
286 
293.05 
283.481 
278.818 
292.06 
303.791 
305.083 
295.685 
296.927 
305.857 
297.46 
297.954 
304.731 
286.643 
288.645 
295.563 
300.698 
306.674 
303.095 
310.92 
304.512 
294.618 
294.155 
306.681 
