ITEM: TIMESTEP
2000
ITEM: NUMBER OF CELLS
100
ITEM: BOX BOUNDS ss pp pp
0 0.001
0 1e-05
-0.5 0.5
ITEM: CELLS f_temp1[*] 
233.463 
234.654 
232.929 
250.186 
237.488 
243.987 
238.25 
239.554 
240.682 
246.765 
236.328 
235.198 
238.432 
248.51 
245.89 
247.612 
256.123 
249.427 
264.159 
256.796 
265.928 
258.817 
260.127 
266.646 
264.565 
260.475 
254.473 
263.888 
263.357 
255.271 
266.994 
263.534 
264.973 
262.493 
262.739 
260.858 
262.415 
266.756 
265.112 
273.956 
264.115 
266.699 
257.65 
262.137 
273.055 
260.297 
263.211 
278.543 
273.783 
270.672 
270.75 
271.083 
270.358 
273.725 
269.799 
272.597 
264.64 
270.308 
261.938 
265.815 
274.839 
274.123 
264.534 
273.898 
274.393 
273.28 
272.827 
267.373 
276.959 
263.887 
273.592 
270.969 
284.081 
278.153 
277.995 
282.282 
277.782 
291.473 
287.907 
284.935 
281.619 
285.379 
296.562 
303.253 
293.019 
299.322 
294.586 
293.022 
298.08 
293.854 
286.66 
294.748 
288.216 
294.11 
301.847 
292.098 
302.384 
296.279 
304.644 
308.166 
