ITEM: TIMESTEP
177000
ITEM: NUMBER OF CELLS
100
ITEM: BOX BOUNDS ss pp pp
0 0.001
0 1e-05
-0.5 0.5
ITEM: CELLS f_temp1[*] 
233.932 
227.145 
227.124 
222.379 
231.437 
237.674 
238.483 
239.36 
247.17 
248.895 
245.211 
253.142 
246.426 
251.795 
247.278 
252.261 
260.516 
245.449 
249.74 
255.902 
252.75 
251.591 
241.451 
248.023 
249.982 
255.974 
250.711 
250.713 
259.413 
248.973 
263.331 
248.342 
257.443 
254.155 
252.541 
254.23 
258.076 
259.655 
263.45 
260.67 
259.639 
270.253 
262.058 
269.068 
264.249 
274.06 
286.882 
277.84 
276.991 
289.354 
273.427 
279.814 
279.988 
266.044 
287.855 
273.482 
275.776 
272.847 
274.503 
276.251 
276.606 
276.769 
281.429 
281.798 
283.968 
282.952 
274.67 
292.253 
284.353 
292.019 
289.922 
292.308 
295.529 
297.231 
297.025 
299.084 
299.795 
290.632 
303.084 
289.564 
286.488 
282.614 
287.024 
296.378 
287.043 
300.474 
296.739 
304.824 
293.52 
300.731 
313.149 
313.063 
293.257 
306.952 
310.258 
305.166 
314.048 
311.39 
303.213 
314.401 
