ITEM: TIMESTEP
75000
ITEM: NUMBER OF CELLS
100
ITEM: BOX BOUNDS ss pp pp
0 0.001
0 1e-05
-0.5 0.5
ITEM: CELLS f_temp1[*] 
240.741 
243.246 
256.706 
255.555 
251.296 
247.615 
243.672 
244.011 
245.642 
242.349 
243.614 
251.133 
251.623 
251.987 
253.562 
248.934 
240.803 
247.542 
250.629 
246.504 
250.767 
251.361 
253.504 
255.59 
263.009 
259.17 
255.539 
260.714 
259.134 
259.891 
261.912 
260.103 
265.339 
259.571 
255.56 
257.667 
258.607 
257.645 
258.701 
261.241 
264.614 
268.108 
263.473 
264.905 
268.302 
268.914 
265.193 
261.33 
262.686 
266.428 
265.049 
267.437 
279.555 
281.758 
288.78 
285.551 
284.09 
280.075 
282.742 
278.026 
278.689 
281.537 
288.69 
295.827 
296.528 
291.31 
288.943 
293.921 
292.395 
290.659 
282.933 
279.314 
286.149 
283.561 
284.52 
280.513 
279.149 
281.147 
281.445 
280.48 
286.175 
286.674 
295.588 
288.708 
294.049 
298.665 
300.77 
301.442 
295.42 
292.22 
292.681 
297.768 
300.442 
301.28 
300.081 
299.233 
301.465 
306.912 
311.926 
305.006 
