ITEM: TIMESTEP
45000
ITEM: NUMBER OF CELLS
100
ITEM: BOX BOUNDS ss pp pp
0 0.001
0 1e-05
-0.5 0.5
ITEM: CELLS f_temp1[*] 
244.386 
240.128 
242.314 
238.13 
243.146 
240.01 
242.957 
240.871 
231.401 
236.586 
239.569 
240.936 
243.49 
244.851 
239.048 
252.268 
254.036 
250.222 
249.756 
255.411 
252.727 
251.804 
251.257 
251.394 
250.952 
258.436 
254.375 
258.847 
265.212 
270.61 
266.63 
265.141 
265.094 
263.007 
267.024 
264.074 
266.558 
261.326 
268.6 
264.174 
271.918 
275.897 
280.429 
280.081 
277.289 
278.356 
283.167 
280.317 
277.915 
274.98 
291.052 
280.572 
278.424 
284.629 
288.07 
281.17 
288.741 
282.118 
289.712 
278.497 
294.616 
276.877 
270.45 
275.979 
282.813 
289.987 
289.829 
297.063 
283.467 
285.042 
289.366 
293.086 
306.179 
295.027 
300.103 
300.698 
290.495 
280.368 
312.973 
300.861 
311.943 
307.601 
301.72 
307.619 
294.305 
308.446 
310.718 
310.174 
316.222 
314.029 
307.27 
304.146 
303.2 
313.39 
315.259 
306.7 
314.206 
317.091 
318.353 
329.583 
