ITEM: TIMESTEP
151000
ITEM: NUMBER OF CELLS
100
ITEM: BOX BOUNDS ss pp pp
0 0.001
0 1e-05
-0.5 0.5
ITEM: CELLS f_temp1[*] 
232.413 
235.835 
237.443 
238.686 
239.416 
239.95 
241.875 
238.446 
231.944 
240.554 
234.734 
236.01 
241.075 
245.209 
242.675 
235.705 
239.514 
245.243 
244.253 
249.629 
244.816 
241.043 
241.695 
243.1 
244.536 
248.842 
255.653 
256.107 
257.376 
254.871 
261.354 
260.133 
258.362 
263.495 
256.687 
253.325 
262.734 
270.239 
266.111 
262.328 
268.801 
273.976 
270.769 
270.004 
272.328 
276.805 
279.122 
280.775 
281.7 
281.933 
280.588 
278.329 
280.088 
280.031 
276.448 
281.078 
284.561 
284.911 
284.213 
278.761 
281.635 
279.461 
284.71 
283.858 
281.704 
278.288 
280.464 
282.988 
283.811 
276.33 
280.382 
280.224 
285.847 
291.819 
287.461 
289.206 
285.412 
293.569 
285.396 
290.744 
294.037 
294.889 
290.528 
297.378 
299.305 
295.672 
291.293 
293.036 
289.575 
292.521 
298.18 
303.63 
303.953 
302.477 
307.176 
308.8 
307.133 
304.255 
308.86 
312.266 
