ITEM: TIMESTEP
101000
ITEM: NUMBER OF CELLS
100
ITEM: BOX BOUNDS ss pp pp
0 0.001
0 1e-05
-0.5 0.5
ITEM: CELLS f_temp1[*] 
225.271 
234.571 
235.725 
229.16 
230.192 
231.673 
229.914 
240.077 
232.857 
238.773 
238.178 
245.121 
243.829 
245.679 
237.118 
247.717 
254.932 
251.652 
245.944 
254.733 
245.418 
245.722 
248.206 
251.991 
258.966 
266.876 
257.235 
260.514 
257.088 
258.246 
256.822 
262.183 
265.39 
271.609 
263.917 
269.244 
266.247 
280.272 
265.04 
266.923 
266.342 
266.784 
262.044 
275.948 
277.286 
263.01 
270.989 
266.495 
264.987 
264.599 
265.671 
265.902 
264.314 
274.395 
267.368 
275.135 
271.807 
275.369 
278.433 
279.41 
286.895 
297.505 
287.927 
295.091 
289.116 
293.459 
293.047 
289.637 
290.072 
290.555 
275.995 
290.092 
296.091 
294.204 
287.777 
285.399 
300.718 
289.54 
298.033 
293.202 
299.115 
300.05 
309.426 
288.738 
295.205 
301.68 
308.822 
297.566 
307.338 
302.942 
302.645 
320.781 
312.728 
307.903 
322.39 
310.921 
320.007 
322.739 
333.216 
327.092 
