ITEM: TIMESTEP
565000000
ITEM: NUMBER OF CELLS
100
ITEM: BOX BOUNDS ss rr pp
0 0.001
0 1e-05
-0.5 0.5
ITEM: CELLS c_particles[1] 
18 
16 
15 
16 
18 
21 
12 
20 
23 
17 
29 
12 
24 
24 
13 
16 
21 
20 
23 
22 
12 
19 
15 
19 
20 
21 
12 
14 
18 
19 
18 
19 
16 
7 
32 
20 
21 
21 
22 
25 
23 
15 
25 
21 
16 
14 
19 
15 
13 
21 
28 
24 
19 
18 
20 
16 
23 
27 
22 
20 
17 
19 
22 
24 
14 
24 
29 
16 
23 
21 
16 
18 
23 
17 
19 
22 
26 
26 
25 
15 
22 
19 
28 
18 
28 
25 
19 
26 
20 
19 
24 
30 
26 
22 
17 
15 
24 
18 
18 
17 
