ITEM: TIMESTEP
544700000
ITEM: NUMBER OF CELLS
100
ITEM: BOX BOUNDS ss rr pp
0 0.001
0 1e-05
-0.5 0.5
ITEM: CELLS c_particles[1] 
25 
22 
20 
18 
12 
26 
28 
18 
11 
17 
19 
12 
9 
24 
22 
22 
25 
20 
21 
21 
18 
23 
15 
22 
22 
30 
26 
18 
24 
19 
20 
19 
20 
15 
24 
19 
21 
28 
15 
22 
21 
19 
19 
21 
26 
19 
15 
21 
16 
23 
20 
15 
23 
21 
20 
14 
32 
17 
23 
21 
13 
19 
20 
23 
22 
27 
19 
22 
19 
23 
23 
16 
18 
18 
22 
18 
16 
24 
16 
17 
22 
28 
23 
24 
17 
25 
15 
14 
24 
18 
34 
16 
7 
12 
19 
14 
19 
17 
26 
13 
