ITEM: TIMESTEP
70700000
ITEM: NUMBER OF CELLS
100
ITEM: BOX BOUNDS ss rr pp
0 0.001
0 1e-05
-0.5 0.5
ITEM: CELLS c_particles[1] 
23 
27 
16 
17 
19 
24 
22 
17 
15 
18 
27 
30 
17 
10 
14 
31 
7 
17 
20 
23 
27 
13 
21 
15 
18 
19 
15 
21 
21 
20 
24 
21 
19 
20 
28 
15 
28 
19 
25 
25 
21 
24 
16 
20 
21 
20 
25 
17 
17 
14 
15 
17 
21 
18 
23 
20 
23 
18 
32 
22 
23 
15 
15 
24 
21 
13 
26 
26 
17 
21 
24 
7 
19 
20 
21 
18 
20 
18 
15 
17 
21 
26 
19 
19 
13 
20 
24 
26 
25 
24 
19 
22 
18 
16 
18 
23 
19 
13 
20 
23 
