ITEM: TIMESTEP
594700000
ITEM: NUMBER OF CELLS
100
ITEM: BOX BOUNDS ss rr pp
0 0.001
0 1e-05
-0.5 0.5
ITEM: CELLS c_particles[1] 
26 
22 
16 
15 
14 
20 
23 
19 
21 
14 
14 
24 
22 
15 
14 
20 
13 
19 
16 
21 
24 
21 
18 
18 
21 
23 
28 
15 
18 
20 
24 
20 
21 
26 
18 
22 
22 
25 
14 
19 
26 
20 
17 
28 
25 
20 
14 
20 
14 
35 
20 
24 
28 
16 
19 
15 
16 
19 
21 
19 
20 
24 
25 
22 
25 
27 
21 
23 
21 
16 
16 
15 
25 
18 
14 
18 
21 
21 
17 
17 
14 
21 
27 
21 
19 
22 
22 
22 
18 
17 
23 
22 
24 
12 
16 
18 
23 
16 
15 
21 
