ITEM: TIMESTEP
664000000
ITEM: NUMBER OF CELLS
100
ITEM: BOX BOUNDS ss rr pp
0 0.001
0 1e-05
-0.5 0.5
ITEM: CELLS c_particles[1] 
23 
23 
17 
22 
19 
20 
22 
17 
18 
13 
24 
20 
24 
31 
16 
18 
24 
24 
21 
18 
16 
16 
19 
16 
23 
25 
25 
14 
15 
18 
16 
19 
10 
21 
16 
21 
20 
23 
17 
26 
23 
21 
20 
28 
19 
17 
21 
25 
20 
24 
21 
16 
21 
27 
15 
15 
23 
15 
22 
17 
20 
15 
22 
19 
15 
23 
16 
21 
22 
23 
21 
30 
20 
25 
23 
21 
14 
15 
22 
21 
14 
14 
19 
29 
20 
17 
16 
17 
17 
18 
21 
23 
22 
16 
17 
35 
14 
20 
24 
19 
