ITEM: TIMESTEP
650900000
ITEM: NUMBER OF CELLS
100
ITEM: BOX BOUNDS ss rr pp
0 0.001
0 1e-05
-0.5 0.5
ITEM: CELLS c_particles[1] 
21 
28 
18 
23 
26 
19 
22 
23 
14 
30 
20 
24 
22 
14 
18 
20 
19 
18 
20 
23 
22 
27 
16 
28 
16 
24 
20 
23 
19 
20 
22 
22 
25 
20 
13 
19 
24 
15 
24 
17 
23 
19 
9 
20 
27 
19 
17 
23 
13 
18 
20 
27 
17 
21 
23 
24 
15 
28 
16 
24 
15 
25 
23 
13 
21 
16 
22 
18 
16 
18 
25 
17 
19 
25 
16 
21 
10 
14 
22 
11 
13 
15 
23 
21 
12 
19 
28 
24 
19 
17 
16 
18 
16 
29 
14 
24 
22 
19 
18 
25 
