ITEM: TIMESTEP
718600000
ITEM: NUMBER OF CELLS
100
ITEM: BOX BOUNDS ss rr pp
0 0.001
0 1e-05
-0.5 0.5
ITEM: CELLS c_particles[1] 
30 
19 
16 
19 
16 
17 
18 
21 
16 
19 
23 
30 
29 
19 
19 
13 
25 
21 
17 
17 
19 
20 
21 
21 
18 
27 
15 
21 
22 
30 
15 
16 
10 
23 
21 
18 
21 
16 
19 
22 
31 
19 
18 
17 
20 
19 
15 
20 
22 
21 
16 
24 
22 
19 
18 
27 
19 
28 
21 
14 
21 
11 
21 
20 
29 
26 
22 
22 
23 
15 
20 
26 
21 
21 
19 
17 
22 
15 
27 
17 
14 
14 
16 
18 
24 
20 
20 
24 
13 
15 
20 
14 
20 
24 
21 
23 
26 
16 
22 
12 
