ITEM: TIMESTEP
414700000
ITEM: NUMBER OF CELLS
100
ITEM: BOX BOUNDS ss rr pp
0 0.001
0 1e-05
-0.5 0.5
ITEM: CELLS c_particles[1] 
17 
21 
12 
15 
20 
19 
21 
19 
23 
14 
14 
13 
20 
16 
16 
14 
21 
17 
22 
15 
24 
26 
20 
18 
21 
22 
24 
15 
22 
24 
15 
19 
18 
17 
17 
24 
27 
15 
22 
19 
16 
13 
20 
24 
9 
17 
21 
17 
16 
24 
27 
22 
18 
26 
24 
19 
22 
27 
19 
23 
21 
23 
20 
22 
16 
23 
18 
18 
21 
28 
23 
31 
26 
17 
26 
19 
27 
20 
15 
15 
20 
19 
20 
17 
24 
19 
18 
17 
23 
15 
17 
23 
26 
25 
20 
14 
25 
21 
23 
23 
