ITEM: TIMESTEP
559400000
ITEM: NUMBER OF CELLS
100
ITEM: BOX BOUNDS ss rr pp
0 0.001
0 1e-05
-0.5 0.5
ITEM: CELLS c_particles[1] 
19 
20 
16 
16 
28 
22 
16 
16 
21 
18 
35 
21 
18 
21 
18 
22 
15 
32 
15 
27 
17 
20 
21 
22 
18 
19 
13 
21 
19 
15 
18 
18 
26 
26 
25 
17 
19 
21 
18 
26 
17 
28 
20 
14 
13 
28 
11 
14 
27 
27 
17 
20 
26 
15 
14 
16 
14 
26 
11 
15 
18 
19 
19 
18 
25 
17 
19 
22 
22 
20 
22 
21 
21 
22 
26 
22 
26 
14 
17 
26 
19 
18 
29 
26 
18 
18 
22 
21 
17 
9 
16 
24 
22 
22 
19 
14 
22 
10 
24 
26 
