ITEM: TIMESTEP
119100000
ITEM: NUMBER OF CELLS
100
ITEM: BOX BOUNDS ss rr pp
0 0.001
0 1e-05
-0.5 0.5
ITEM: CELLS c_particles[1] 
16 
23 
26 
14 
28 
14 
23 
14 
16 
26 
18 
20 
16 
15 
22 
15 
22 
30 
14 
14 
30 
28 
14 
35 
19 
25 
18 
19 
23 
17 
15 
22 
23 
19 
24 
23 
16 
19 
21 
12 
17 
12 
29 
13 
19 
20 
20 
17 
21 
22 
18 
29 
20 
13 
28 
20 
22 
23 
25 
23 
20 
27 
16 
27 
18 
16 
18 
22 
16 
31 
18 
24 
20 
24 
15 
12 
21 
21 
20 
15 
17 
16 
21 
15 
18 
20 
25 
13 
21 
16 
17 
16 
23 
17 
26 
18 
18 
23 
18 
22 
