ITEM: TIMESTEP
458400000
ITEM: NUMBER OF CELLS
100
ITEM: BOX BOUNDS ss rr pp
0 0.001
0 1e-05
-0.5 0.5
ITEM: CELLS c_particles[1] 
18 
23 
25 
21 
18 
23 
14 
25 
20 
21 
23 
22 
22 
25 
24 
27 
15 
20 
17 
18 
22 
22 
21 
16 
22 
19 
16 
20 
24 
28 
27 
15 
16 
16 
23 
9 
17 
8 
21 
14 
21 
14 
16 
20 
16 
15 
23 
23 
22 
22 
22 
18 
24 
25 
21 
21 
27 
22 
21 
11 
16 
19 
25 
10 
19 
24 
15 
18 
20 
22 
18 
21 
25 
12 
28 
16 
13 
23 
17 
18 
19 
25 
26 
37 
23 
29 
21 
14 
19 
19 
16 
22 
21 
14 
23 
16 
22 
9 
21 
24 
