ITEM: TIMESTEP
247100000
ITEM: NUMBER OF CELLS
100
ITEM: BOX BOUNDS ss rr pp
0 0.001
0 1e-05
-0.5 0.5
ITEM: CELLS c_particles[1] 
15 
26 
15 
14 
19 
19 
19 
19 
25 
27 
19 
22 
22 
18 
16 
18 
22 
26 
14 
16 
11 
17 
19 
17 
17 
25 
18 
19 
25 
17 
21 
23 
14 
30 
23 
20 
16 
24 
20 
14 
20 
23 
16 
26 
16 
20 
21 
23 
19 
24 
19 
20 
23 
13 
16 
27 
16 
32 
35 
23 
13 
21 
19 
18 
17 
12 
16 
24 
23 
25 
22 
21 
15 
12 
20 
27 
21 
20 
19 
27 
18 
25 
17 
13 
21 
26 
15 
24 
23 
11 
21 
23 
20 
22 
17 
25 
21 
22 
12 
19 
