ITEM: TIMESTEP
446200000
ITEM: NUMBER OF CELLS
100
ITEM: BOX BOUNDS ss rr pp
0 0.001
0 1e-05
-0.5 0.5
ITEM: CELLS c_particles[1] 
19 
13 
18 
21 
12 
17 
15 
18 
17 
22 
17 
17 
28 
25 
24 
24 
16 
21 
23 
22 
15 
21 
20 
25 
18 
13 
22 
33 
20 
20 
27 
26 
19 
17 
19 
19 
26 
20 
26 
24 
24 
26 
22 
26 
22 
27 
27 
22 
20 
15 
19 
28 
27 
26 
14 
27 
27 
17 
15 
14 
18 
21 
18 
18 
15 
20 
18 
21 
17 
15 
14 
18 
12 
16 
13 
16 
21 
18 
25 
26 
16 
22 
18 
22 
20 
20 
25 
22 
21 
16 
14 
15 
20 
14 
19 
21 
18 
10 
22 
21 
