ITEM: TIMESTEP
617400000
ITEM: NUMBER OF CELLS
100
ITEM: BOX BOUNDS ss rr pp
0 0.001
0 1e-05
-0.5 0.5
ITEM: CELLS c_particles[1] 
13 
26 
24 
16 
20 
17 
17 
22 
24 
20 
23 
26 
24 
21 
30 
22 
26 
20 
25 
15 
17 
25 
27 
20 
26 
17 
12 
23 
16 
26 
13 
21 
19 
13 
20 
21 
16 
16 
20 
22 
14 
21 
17 
11 
23 
21 
19 
22 
21 
24 
22 
20 
23 
13 
17 
16 
19 
18 
19 
18 
20 
36 
20 
22 
21 
17 
20 
17 
18 
20 
19 
27 
18 
17 
15 
20 
18 
23 
21 
20 
23 
17 
17 
16 
22 
22 
23 
24 
16 
19 
22 
14 
17 
17 
18 
26 
21 
19 
22 
17 
