ITEM: TIMESTEP
576400000
ITEM: NUMBER OF CELLS
100
ITEM: BOX BOUNDS ss rr pp
0 0.001
0 1e-05
-0.5 0.5
ITEM: CELLS c_particles[1] 
15 
18 
19 
19 
24 
21 
23 
29 
23 
19 
24 
19 
23 
15 
22 
27 
22 
24 
15 
25 
17 
18 
15 
20 
21 
19 
28 
25 
21 
21 
25 
16 
18 
22 
23 
29 
15 
18 
17 
15 
17 
22 
21 
12 
19 
30 
18 
17 
22 
26 
27 
18 
24 
24 
19 
12 
22 
16 
21 
16 
18 
26 
17 
19 
28 
17 
19 
20 
26 
28 
14 
21 
26 
24 
18 
15 
22 
13 
21 
14 
20 
21 
12 
23 
16 
25 
21 
23 
17 
13 
18 
13 
13 
18 
19 
18 
27 
16 
14 
15 
