ITEM: TIMESTEP
444500000
ITEM: NUMBER OF CELLS
100
ITEM: BOX BOUNDS ss rr pp
0 0.001
0 1e-05
-0.5 0.5
ITEM: CELLS c_particles[1] 
22 
24 
29 
19 
16 
25 
19 
16 
24 
23 
17 
20 
28 
23 
26 
18 
20 
16 
20 
14 
28 
20 
21 
19 
20 
27 
29 
22 
27 
19 
22 
23 
35 
19 
23 
28 
16 
20 
17 
19 
26 
18 
24 
21 
17 
24 
16 
14 
15 
14 
18 
21 
17 
19 
13 
24 
21 
18 
22 
19 
19 
18 
15 
14 
21 
20 
19 
21 
20 
20 
20 
18 
23 
10 
22 
19 
29 
27 
16 
16 
26 
21 
14 
21 
21 
12 
23 
16 
20 
17 
20 
22 
15 
17 
12 
21 
14 
16 
19 
12 
