ITEM: TIMESTEP
204100000
ITEM: NUMBER OF CELLS
100
ITEM: BOX BOUNDS ss rr pp
0 0.001
0 1e-05
-0.5 0.5
ITEM: CELLS c_particles[1] 
15 
28 
20 
24 
20 
13 
19 
22 
25 
30 
14 
19 
19 
16 
15 
20 
28 
17 
19 
24 
24 
25 
28 
18 
22 
19 
21 
17 
25 
21 
12 
20 
21 
21 
16 
19 
15 
18 
19 
23 
28 
16 
15 
22 
19 
17 
14 
18 
15 
19 
25 
19 
16 
16 
15 
15 
18 
22 
20 
17 
24 
10 
13 
22 
23 
20 
22 
17 
22 
19 
15 
20 
29 
16 
22 
20 
23 
15 
26 
23 
22 
29 
18 
18 
18 
20 
24 
24 
22 
20 
27 
15 
15 
22 
19 
21 
25 
23 
20 
20 
