ITEM: TIMESTEP
694600000
ITEM: NUMBER OF CELLS
100
ITEM: BOX BOUNDS ss rr pp
0 0.001
0 1e-05
-0.5 0.5
ITEM: CELLS c_particles[1] 
17 
16 
25 
16 
17 
32 
22 
16 
17 
20 
18 
20 
24 
18 
21 
20 
16 
26 
18 
19 
20 
20 
19 
21 
18 
23 
20 
24 
27 
16 
19 
23 
19 
22 
14 
19 
20 
29 
21 
18 
19 
18 
25 
21 
14 
17 
20 
16 
18 
17 
26 
21 
22 
23 
21 
16 
17 
24 
13 
14 
25 
30 
15 
17 
21 
20 
28 
20 
18 
24 
23 
22 
20 
21 
24 
17 
23 
19 
13 
23 
15 
21 
22 
21 
27 
22 
14 
22 
20 
17 
12 
18 
16 
18 
20 
19 
27 
16 
20 
18 
