ITEM: TIMESTEP
412500000
ITEM: NUMBER OF CELLS
100
ITEM: BOX BOUNDS ss rr pp
0 0.001
0 1e-05
-0.5 0.5
ITEM: CELLS c_particles[1] 
25 
25 
24 
21 
16 
14 
17 
22 
18 
20 
22 
19 
16 
18 
21 
23 
13 
17 
15 
17 
21 
23 
10 
33 
16 
16 
26 
27 
21 
15 
27 
24 
20 
15 
16 
29 
32 
13 
19 
27 
16 
16 
25 
24 
17 
20 
19 
19 
14 
20 
20 
22 
26 
15 
31 
16 
14 
19 
18 
26 
28 
23 
20 
18 
13 
19 
19 
26 
17 
18 
19 
14 
20 
18 
28 
22 
15 
17 
19 
17 
20 
15 
21 
31 
18 
21 
18 
26 
25 
14 
19 
25 
21 
17 
18 
25 
19 
15 
19 
13 
