ITEM: TIMESTEP
129200000
ITEM: NUMBER OF CELLS
100
ITEM: BOX BOUNDS ss rr pp
0 0.001
0 1e-05
-0.5 0.5
ITEM: CELLS c_particles[1] 
22 
33 
17 
21 
25 
18 
22 
15 
16 
25 
14 
16 
28 
22 
23 
15 
19 
28 
19 
20 
20 
15 
17 
16 
18 
23 
23 
23 
17 
21 
23 
22 
21 
21 
25 
17 
24 
19 
17 
15 
19 
19 
20 
19 
23 
11 
25 
20 
23 
29 
26 
18 
25 
24 
20 
23 
24 
26 
13 
9 
24 
20 
19 
15 
13 
20 
21 
21 
17 
20 
18 
24 
17 
24 
22 
11 
19 
26 
18 
21 
25 
10 
23 
16 
13 
27 
22 
19 
17 
28 
17 
17 
25 
19 
18 
16 
16 
18 
18 
15 
