ITEM: TIMESTEP
350000000
ITEM: NUMBER OF CELLS
100
ITEM: BOX BOUNDS ss rr pp
0 0.001
0 1e-05
-0.5 0.5
ITEM: CELLS c_particles[1] 
27 
23 
20 
25 
30 
18 
25 
22 
16 
14 
14 
18 
17 
17 
17 
21 
20 
15 
20 
23 
23 
21 
24 
21 
22 
22 
23 
20 
14 
23 
22 
16 
18 
15 
20 
22 
20 
14 
14 
23 
20 
21 
7 
20 
14 
13 
21 
21 
15 
25 
26 
21 
21 
18 
15 
23 
9 
21 
28 
20 
18 
17 
23 
28 
27 
21 
14 
22 
18 
19 
18 
17 
23 
27 
16 
16 
20 
30 
25 
18 
17 
25 
24 
22 
25 
16 
21 
18 
18 
27 
18 
13 
17 
14 
24 
23 
17 
23 
21 
22 
