ITEM: TIMESTEP
51700000
ITEM: NUMBER OF CELLS
100
ITEM: BOX BOUNDS ss rr pp
0 0.001
0 1e-05
-0.5 0.5
ITEM: CELLS c_particles[1] 
22 
18 
20 
20 
19 
19 
24 
28 
17 
25 
21 
26 
19 
20 
19 
19 
20 
18 
24 
22 
14 
25 
15 
22 
26 
17 
18 
15 
19 
25 
24 
23 
22 
19 
21 
19 
21 
26 
23 
22 
21 
23 
17 
19 
17 
20 
19 
21 
23 
18 
24 
23 
19 
22 
17 
15 
15 
25 
18 
19 
14 
19 
16 
22 
19 
15 
16 
20 
20 
18 
21 
17 
21 
19 
21 
23 
11 
27 
23 
17 
22 
20 
17 
19 
19 
23 
19 
15 
25 
21 
15 
17 
25 
19 
17 
23 
18 
16 
16 
24 
