ITEM: TIMESTEP
621100000
ITEM: NUMBER OF CELLS
100
ITEM: BOX BOUNDS ss rr pp
0 0.001
0 1e-05
-0.5 0.5
ITEM: CELLS c_particles[1] 
16 
15 
18 
16 
27 
17 
20 
15 
22 
25 
15 
18 
15 
28 
24 
15 
23 
26 
15 
31 
20 
17 
14 
20 
12 
27 
29 
23 
19 
21 
21 
26 
18 
22 
26 
19 
24 
17 
21 
14 
25 
23 
17 
13 
16 
24 
28 
18 
17 
23 
17 
32 
25 
17 
25 
12 
19 
17 
24 
22 
24 
20 
18 
22 
18 
29 
20 
21 
27 
21 
15 
23 
17 
13 
15 
12 
12 
21 
18 
21 
24 
11 
18 
26 
23 
20 
21 
17 
20 
14 
20 
27 
18 
15 
18 
25 
17 
13 
19 
22 
