ITEM: TIMESTEP
200900000
ITEM: NUMBER OF CELLS
100
ITEM: BOX BOUNDS ss rr pp
0 0.001
0 1e-05
-0.5 0.5
ITEM: CELLS c_particles[1] 
19 
19 
20 
23 
21 
23 
24 
24 
22 
20 
19 
18 
19 
21 
23 
21 
20 
9 
16 
25 
20 
18 
24 
15 
13 
22 
25 
24 
26 
25 
18 
16 
16 
12 
26 
20 
24 
22 
19 
15 
18 
21 
22 
25 
17 
19 
16 
22 
22 
17 
26 
20 
20 
11 
22 
19 
20 
27 
20 
17 
15 
17 
18 
25 
25 
16 
17 
14 
14 
23 
15 
14 
21 
22 
20 
11 
20 
26 
17 
11 
26 
25 
22 
19 
26 
12 
25 
15 
27 
24 
17 
26 
17 
25 
31 
14 
17 
26 
21 
17 
