ITEM: TIMESTEP
470700000
ITEM: NUMBER OF CELLS
100
ITEM: BOX BOUNDS ss rr pp
0 0.001
0 1e-05
-0.5 0.5
ITEM: CELLS c_particles[1] 
21 
19 
25 
24 
21 
18 
19 
24 
30 
25 
20 
19 
21 
23 
19 
19 
23 
18 
15 
14 
15 
18 
16 
15 
18 
25 
22 
15 
26 
19 
19 
13 
21 
24 
20 
15 
25 
28 
16 
26 
23 
27 
27 
14 
17 
14 
25 
16 
14 
19 
20 
16 
20 
27 
17 
22 
13 
20 
14 
21 
18 
17 
37 
19 
20 
25 
15 
18 
18 
17 
24 
17 
19 
28 
15 
11 
26 
19 
24 
19 
20 
25 
24 
23 
21 
15 
11 
20 
12 
13 
23 
21 
21 
13 
20 
26 
25 
29 
13 
20 
