ITEM: TIMESTEP
547200000
ITEM: NUMBER OF CELLS
100
ITEM: BOX BOUNDS ss rr pp
0 0.001
0 1e-05
-0.5 0.5
ITEM: CELLS c_particles[1] 
32 
25 
20 
15 
18 
19 
17 
19 
22 
14 
25 
20 
15 
21 
30 
20 
17 
15 
24 
20 
14 
22 
18 
20 
19 
21 
20 
12 
17 
12 
24 
15 
25 
20 
12 
15 
17 
21 
18 
22 
24 
18 
17 
23 
16 
21 
21 
14 
12 
24 
15 
25 
19 
22 
17 
19 
23 
21 
23 
20 
25 
26 
23 
16 
16 
17 
20 
7 
19 
16 
19 
22 
30 
21 
14 
20 
26 
24 
18 
27 
25 
26 
17 
26 
18 
21 
18 
25 
25 
23 
21 
19 
23 
19 
22 
23 
15 
22 
21 
19 
