ITEM: TIMESTEP
418100000
ITEM: NUMBER OF CELLS
100
ITEM: BOX BOUNDS ss rr pp
0 0.001
0 1e-05
-0.5 0.5
ITEM: CELLS c_particles[1] 
16 
35 
21 
23 
21 
23 
25 
23 
22 
23 
21 
19 
19 
27 
21 
20 
19 
28 
11 
22 
17 
25 
18 
20 
27 
18 
20 
13 
16 
24 
22 
12 
14 
14 
13 
14 
19 
17 
22 
13 
22 
26 
23 
19 
24 
18 
17 
29 
21 
16 
28 
18 
32 
20 
24 
24 
21 
20 
17 
15 
14 
26 
17 
23 
27 
14 
19 
22 
21 
22 
11 
16 
27 
20 
18 
23 
18 
16 
18 
21 
16 
17 
16 
16 
18 
26 
15 
22 
18 
22 
15 
12 
15 
26 
14 
22 
24 
21 
25 
16 
