ITEM: TIMESTEP
717200000
ITEM: NUMBER OF CELLS
100
ITEM: BOX BOUNDS ss rr pp
0 0.001
0 1e-05
-0.5 0.5
ITEM: CELLS c_particles[1] 
24 
17 
23 
19 
24 
27 
22 
19 
29 
15 
17 
20 
21 
19 
19 
25 
19 
25 
19 
21 
18 
17 
22 
18 
22 
19 
28 
17 
19 
23 
16 
17 
23 
15 
19 
23 
21 
21 
20 
17 
21 
17 
26 
21 
21 
14 
22 
15 
18 
20 
21 
31 
20 
15 
26 
14 
27 
20 
20 
25 
16 
26 
16 
20 
14 
23 
20 
18 
17 
21 
18 
23 
21 
17 
18 
23 
25 
31 
14 
16 
10 
16 
22 
16 
23 
23 
16 
18 
17 
12 
19 
19 
23 
12 
24 
15 
25 
13 
23 
24 
