ITEM: TIMESTEP
293100000
ITEM: NUMBER OF CELLS
100
ITEM: BOX BOUNDS ss rr pp
0 0.001
0 1e-05
-0.5 0.5
ITEM: CELLS c_particles[1] 
30 
23 
26 
12 
25 
18 
28 
25 
13 
21 
19 
22 
17 
26 
20 
25 
25 
16 
22 
26 
31 
16 
19 
25 
20 
14 
28 
19 
21 
13 
22 
19 
21 
14 
16 
23 
23 
15 
21 
17 
20 
21 
26 
22 
18 
20 
11 
30 
21 
31 
16 
21 
13 
17 
26 
24 
15 
19 
12 
20 
18 
19 
17 
16 
16 
19 
19 
15 
22 
23 
23 
11 
21 
22 
17 
17 
16 
23 
15 
27 
26 
24 
22 
14 
26 
15 
24 
19 
25 
20 
15 
8 
17 
18 
23 
15 
16 
19 
19 
20 
