ITEM: TIMESTEP
146300000
ITEM: NUMBER OF CELLS
100
ITEM: BOX BOUNDS ss rr pp
0 0.001
0 1e-05
-0.5 0.5
ITEM: CELLS c_particles[1] 
19 
25 
22 
20 
25 
24 
16 
24 
20 
15 
14 
17 
24 
21 
26 
12 
19 
29 
16 
18 
20 
21 
25 
23 
24 
16 
19 
19 
20 
19 
25 
14 
21 
15 
17 
16 
25 
27 
17 
21 
22 
17 
31 
25 
20 
21 
21 
17 
23 
24 
21 
26 
18 
16 
26 
13 
17 
16 
18 
25 
22 
15 
13 
16 
25 
29 
19 
22 
19 
20 
15 
27 
14 
24 
20 
20 
14 
21 
16 
24 
16 
16 
21 
16 
17 
22 
16 
21 
15 
20 
22 
18 
23 
19 
13 
15 
22 
16 
28 
22 
