ITEM: TIMESTEP
520900000
ITEM: NUMBER OF CELLS
100
ITEM: BOX BOUNDS ss rr pp
0 0.001
0 1e-05
-0.5 0.5
ITEM: CELLS c_particles[1] 
33 
19 
17 
18 
25 
18 
22 
18 
23 
17 
24 
25 
22 
15 
20 
22 
12 
22 
19 
25 
18 
24 
17 
21 
24 
22 
16 
24 
25 
16 
24 
17 
19 
16 
22 
18 
18 
26 
13 
14 
15 
14 
12 
12 
16 
24 
17 
14 
21 
19 
25 
27 
20 
24 
20 
26 
22 
16 
15 
24 
15 
20 
24 
30 
28 
17 
15 
18 
21 
16 
15 
18 
28 
16 
14 
20 
18 
22 
27 
17 
20 
31 
19 
23 
24 
18 
30 
13 
15 
18 
27 
29 
25 
26 
12 
19 
21 
11 
16 
11 
