ITEM: TIMESTEP
389200000
ITEM: NUMBER OF CELLS
100
ITEM: BOX BOUNDS ss rr pp
0 0.001
0 1e-05
-0.5 0.5
ITEM: CELLS c_particles[1] 
17 
18 
23 
23 
17 
30 
21 
23 
14 
16 
19 
27 
21 
24 
14 
19 
21 
18 
22 
13 
26 
23 
22 
16 
19 
21 
20 
20 
26 
32 
24 
12 
20 
27 
15 
15 
19 
23 
20 
15 
14 
29 
21 
24 
13 
17 
13 
20 
17 
31 
23 
18 
24 
20 
20 
22 
15 
16 
22 
25 
11 
21 
27 
18 
17 
22 
18 
19 
23 
19 
19 
17 
17 
17 
23 
21 
22 
24 
11 
14 
22 
29 
23 
20 
19 
16 
24 
19 
10 
15 
21 
17 
20 
18 
23 
23 
23 
21 
17 
21 
