ITEM: TIMESTEP
414400000
ITEM: NUMBER OF CELLS
100
ITEM: BOX BOUNDS ss rr pp
0 0.001
0 1e-05
-0.5 0.5
ITEM: CELLS c_particles[1] 
16 
16 
25 
18 
25 
26 
15 
17 
18 
14 
8 
12 
26 
26 
18 
21 
16 
19 
30 
20 
22 
19 
33 
15 
25 
23 
26 
12 
18 
25 
16 
21 
21 
21 
18 
14 
14 
22 
23 
17 
25 
15 
19 
13 
22 
15 
20 
28 
23 
13 
21 
13 
23 
26 
30 
19 
21 
22 
21 
20 
21 
22 
25 
15 
28 
30 
26 
24 
12 
24 
15 
25 
16 
18 
19 
23 
19 
22 
22 
22 
19 
19 
17 
21 
12 
21 
17 
18 
16 
20 
9 
19 
14 
19 
22 
21 
11 
24 
20 
33 
