ITEM: TIMESTEP
118400000
ITEM: NUMBER OF CELLS
100
ITEM: BOX BOUNDS ss rr pp
0 0.001
0 1e-05
-0.5 0.5
ITEM: CELLS c_particles[1] 
18 
21 
25 
16 
20 
24 
27 
19 
18 
26 
23 
18 
17 
21 
25 
26 
13 
20 
19 
24 
11 
28 
12 
23 
15 
24 
28 
23 
20 
20 
25 
20 
24 
24 
16 
19 
22 
11 
26 
22 
22 
13 
21 
22 
19 
24 
17 
33 
17 
21 
10 
24 
16 
17 
11 
27 
16 
18 
19 
17 
16 
18 
22 
18 
24 
19 
20 
13 
18 
25 
24 
19 
23 
25 
26 
17 
14 
19 
20 
20 
15 
20 
17 
19 
23 
16 
13 
22 
27 
13 
19 
14 
25 
15 
20 
21 
21 
18 
20 
25 
