ITEM: TIMESTEP
8800000
ITEM: NUMBER OF CELLS
100
ITEM: BOX BOUNDS ss rr pp
0 0.001
0 1e-05
-0.5 0.5
ITEM: CELLS c_particles[1] 
12 
21 
17 
16 
10 
17 
25 
18 
17 
30 
17 
24 
22 
19 
24 
17 
12 
18 
28 
19 
22 
17 
17 
19 
23 
15 
19 
22 
24 
19 
14 
22 
26 
21 
15 
26 
19 
13 
17 
23 
18 
14 
16 
13 
24 
17 
7 
17 
17 
22 
19 
28 
22 
17 
24 
25 
25 
20 
14 
26 
31 
16 
12 
18 
15 
24 
26 
28 
20 
21 
25 
16 
8 
18 
20 
18 
20 
26 
16 
21 
12 
26 
27 
20 
15 
23 
29 
18 
14 
17 
23 
23 
18 
30 
23 
23 
21 
17 
32 
29 
