ITEM: TIMESTEP
232200000
ITEM: NUMBER OF CELLS
100
ITEM: BOX BOUNDS ss rr pp
0 0.001
0 1e-05
-0.5 0.5
ITEM: CELLS c_particles[1] 
24 
33 
22 
22 
18 
17 
22 
18 
22 
13 
10 
20 
20 
20 
20 
24 
12 
15 
15 
22 
25 
22 
21 
17 
23 
21 
18 
26 
22 
26 
25 
20 
21 
21 
23 
24 
18 
14 
28 
24 
16 
16 
18 
18 
17 
24 
17 
35 
20 
19 
17 
26 
11 
16 
17 
24 
20 
19 
21 
19 
13 
16 
23 
17 
22 
23 
22 
13 
23 
23 
19 
21 
24 
16 
23 
21 
16 
16 
16 
19 
21 
15 
21 
17 
23 
20 
17 
14 
21 
23 
28 
21 
23 
19 
15 
19 
20 
13 
21 
25 
