ITEM: TIMESTEP
293500000
ITEM: NUMBER OF CELLS
100
ITEM: BOX BOUNDS ss rr pp
0 0.001
0 1e-05
-0.5 0.5
ITEM: CELLS c_particles[1] 
27 
22 
18 
18 
21 
27 
14 
27 
16 
11 
23 
15 
19 
20 
20 
20 
23 
17 
19 
23 
24 
26 
23 
18 
13 
24 
19 
25 
26 
28 
21 
23 
25 
22 
17 
17 
19 
18 
19 
20 
15 
20 
18 
22 
22 
25 
22 
26 
13 
22 
12 
21 
18 
17 
15 
24 
18 
19 
25 
18 
22 
19 
21 
19 
22 
20 
19 
26 
25 
14 
22 
28 
13 
16 
19 
20 
16 
21 
18 
20 
20 
21 
22 
20 
19 
22 
15 
26 
14 
16 
18 
15 
18 
28 
19 
18 
17 
13 
16 
24 
