ITEM: TIMESTEP
121800000
ITEM: NUMBER OF CELLS
100
ITEM: BOX BOUNDS ss rr pp
0 0.001
0 1e-05
-0.5 0.5
ITEM: CELLS c_particles[1] 
23 
21 
30 
12 
11 
18 
25 
12 
15 
21 
22 
22 
20 
26 
21 
27 
23 
22 
16 
19 
25 
17 
24 
19 
18 
22 
23 
18 
16 
16 
22 
28 
15 
25 
24 
21 
19 
21 
14 
22 
22 
18 
19 
16 
19 
22 
14 
29 
19 
18 
21 
17 
28 
15 
25 
24 
22 
28 
16 
14 
20 
16 
20 
14 
18 
22 
16 
19 
26 
20 
15 
21 
17 
24 
7 
15 
22 
19 
24 
15 
18 
23 
21 
24 
19 
18 
19 
21 
23 
14 
19 
20 
24 
18 
21 
17 
22 
18 
24 
26 
