ITEM: TIMESTEP
135900000
ITEM: NUMBER OF CELLS
100
ITEM: BOX BOUNDS ss rr pp
0 0.001
0 1e-05
-0.5 0.5
ITEM: CELLS c_particles[1] 
24 
27 
17 
20 
23 
14 
22 
15 
25 
24 
18 
23 
19 
19 
22 
15 
14 
22 
18 
16 
23 
15 
20 
24 
15 
19 
30 
22 
16 
20 
23 
29 
12 
13 
18 
25 
21 
23 
19 
23 
19 
23 
24 
11 
27 
22 
21 
25 
21 
24 
24 
19 
19 
21 
21 
28 
22 
14 
18 
19 
29 
16 
14 
23 
28 
21 
23 
18 
15 
21 
26 
28 
15 
15 
21 
15 
10 
9 
23 
18 
21 
20 
17 
22 
16 
17 
19 
10 
17 
23 
24 
22 
16 
16 
22 
22 
17 
17 
22 
23 
