ITEM: TIMESTEP
615100000
ITEM: NUMBER OF CELLS
100
ITEM: BOX BOUNDS ss rr pp
0 0.001
0 1e-05
-0.5 0.5
ITEM: CELLS c_particles[1] 
19 
16 
22 
26 
26 
25 
22 
21 
20 
23 
22 
20 
18 
15 
14 
17 
21 
25 
16 
21 
12 
27 
25 
16 
29 
21 
16 
25 
18 
21 
23 
29 
22 
11 
18 
18 
23 
23 
22 
15 
24 
13 
21 
24 
16 
15 
19 
20 
20 
25 
20 
19 
21 
25 
20 
13 
25 
21 
19 
20 
25 
23 
27 
18 
15 
23 
27 
12 
15 
16 
15 
25 
15 
16 
12 
22 
12 
22 
25 
12 
23 
15 
17 
24 
27 
27 
17 
19 
18 
26 
21 
14 
12 
16 
14 
15 
30 
25 
20 
20 
