ITEM: TIMESTEP
338800000
ITEM: NUMBER OF CELLS
100
ITEM: BOX BOUNDS ss rr pp
0 0.001
0 1e-05
-0.5 0.5
ITEM: CELLS c_particles[1] 
25 
24 
20 
14 
26 
29 
17 
26 
31 
17 
20 
24 
21 
24 
18 
20 
19 
23 
15 
26 
23 
20 
33 
14 
23 
20 
16 
16 
31 
12 
17 
24 
14 
17 
16 
23 
23 
20 
19 
20 
27 
15 
17 
20 
18 
22 
27 
25 
19 
18 
21 
15 
21 
15 
19 
26 
18 
15 
19 
17 
14 
17 
18 
21 
23 
16 
16 
16 
25 
18 
23 
22 
26 
23 
14 
19 
14 
20 
22 
18 
19 
17 
18 
20 
22 
22 
12 
15 
24 
20 
17 
27 
21 
20 
22 
16 
19 
22 
16 
12 
