ITEM: TIMESTEP
467300000
ITEM: NUMBER OF CELLS
100
ITEM: BOX BOUNDS ss rr pp
0 0.001
0 1e-05
-0.5 0.5
ITEM: CELLS c_particles[1] 
14 
27 
27 
22 
30 
25 
13 
17 
23 
17 
26 
23 
15 
30 
19 
23 
22 
14 
15 
20 
20 
17 
26 
20 
23 
16 
23 
27 
21 
18 
23 
21 
20 
15 
15 
13 
17 
28 
19 
23 
16 
21 
19 
16 
22 
24 
28 
22 
22 
18 
26 
14 
18 
24 
26 
14 
14 
16 
17 
20 
12 
19 
19 
24 
30 
15 
23 
18 
22 
21 
13 
24 
20 
19 
22 
19 
19 
18 
25 
22 
20 
13 
15 
18 
12 
15 
22 
16 
22 
14 
20 
19 
21 
21 
20 
27 
26 
18 
17 
16 
