ITEM: TIMESTEP
236600000
ITEM: NUMBER OF CELLS
100
ITEM: BOX BOUNDS ss rr pp
0 0.001
0 1e-05
-0.5 0.5
ITEM: CELLS c_particles[1] 
22 
14 
15 
20 
21 
19 
24 
16 
24 
19 
17 
19 
23 
21 
17 
21 
24 
16 
22 
20 
33 
18 
14 
17 
30 
19 
24 
24 
28 
22 
15 
18 
21 
25 
18 
15 
18 
20 
18 
22 
17 
29 
21 
16 
20 
27 
24 
19 
13 
29 
17 
20 
25 
26 
20 
18 
29 
19 
16 
15 
18 
11 
17 
27 
13 
9 
19 
18 
14 
26 
9 
21 
14 
22 
23 
17 
17 
17 
15 
21 
14 
29 
13 
18 
22 
24 
15 
16 
22 
25 
19 
24 
19 
19 
25 
22 
24 
27 
25 
17 
