ITEM: TIMESTEP
5700000
ITEM: NUMBER OF CELLS
100
ITEM: BOX BOUNDS ss rr pp
0 0.001
0 1e-05
-0.5 0.5
ITEM: CELLS c_particles[1] 
22 
30 
23 
19 
21 
25 
23 
24 
22 
27 
19 
16 
21 
14 
22 
20 
12 
17 
23 
21 
19 
14 
27 
21 
20 
21 
29 
16 
16 
20 
27 
19 
19 
24 
24 
17 
21 
23 
16 
13 
15 
12 
19 
25 
26 
18 
22 
22 
16 
17 
22 
13 
18 
21 
22 
16 
23 
25 
13 
24 
15 
15 
10 
21 
18 
30 
20 
24 
14 
21 
20 
16 
17 
28 
13 
24 
20 
24 
16 
16 
14 
20 
16 
13 
22 
29 
21 
22 
32 
21 
23 
25 
23 
14 
12 
26 
17 
21 
14 
17 
