ITEM: TIMESTEP
669100000
ITEM: NUMBER OF CELLS
100
ITEM: BOX BOUNDS ss rr pp
0 0.001
0 1e-05
-0.5 0.5
ITEM: CELLS c_particles[1] 
22 
19 
15 
16 
25 
14 
27 
15 
17 
15 
23 
18 
19 
22 
19 
19 
17 
12 
20 
25 
14 
25 
12 
21 
12 
21 
14 
18 
18 
14 
20 
24 
19 
21 
17 
23 
20 
21 
21 
17 
14 
24 
16 
14 
18 
14 
20 
26 
27 
26 
29 
15 
20 
30 
33 
19 
19 
21 
19 
28 
14 
25 
27 
23 
21 
24 
17 
17 
10 
23 
10 
23 
19 
16 
29 
16 
19 
22 
19 
17 
18 
22 
22 
31 
21 
16 
26 
14 
20 
22 
23 
21 
17 
14 
25 
16 
27 
27 
20 
24 
