ITEM: TIMESTEP
397800000
ITEM: NUMBER OF CELLS
100
ITEM: BOX BOUNDS ss rr pp
0 0.001
0 1e-05
-0.5 0.5
ITEM: CELLS c_particles[1] 
16 
18 
21 
22 
15 
19 
28 
15 
15 
23 
16 
15 
28 
15 
16 
32 
21 
21 
15 
10 
21 
26 
26 
26 
27 
15 
21 
16 
22 
26 
20 
25 
26 
20 
12 
24 
15 
25 
29 
17 
16 
18 
27 
23 
30 
21 
15 
22 
14 
20 
25 
13 
18 
27 
20 
22 
23 
14 
11 
25 
24 
19 
31 
15 
18 
16 
21 
18 
15 
24 
16 
19 
28 
19 
16 
15 
20 
18 
18 
16 
25 
11 
15 
16 
21 
16 
18 
25 
32 
29 
20 
19 
21 
18 
11 
13 
17 
19 
23 
21 
