ITEM: TIMESTEP
635000000
ITEM: NUMBER OF CELLS
100
ITEM: BOX BOUNDS ss rr pp
0 0.001
0 1e-05
-0.5 0.5
ITEM: CELLS c_particles[1] 
28 
18 
19 
23 
24 
21 
25 
21 
30 
26 
22 
14 
16 
22 
22 
26 
19 
27 
30 
22 
30 
13 
22 
17 
24 
16 
18 
17 
15 
20 
21 
15 
21 
17 
29 
24 
12 
19 
23 
21 
12 
15 
21 
21 
22 
21 
19 
25 
24 
18 
13 
13 
21 
21 
19 
16 
18 
17 
15 
24 
26 
24 
11 
22 
22 
30 
12 
20 
20 
18 
17 
19 
24 
18 
16 
15 
23 
16 
17 
18 
16 
22 
13 
16 
19 
18 
13 
26 
13 
22 
21 
23 
21 
25 
14 
21 
22 
25 
20 
18 
