ITEM: TIMESTEP
294100000
ITEM: NUMBER OF CELLS
100
ITEM: BOX BOUNDS ss rr pp
0 0.001
0 1e-05
-0.5 0.5
ITEM: CELLS c_particles[1] 
18 
17 
17 
17 
23 
21 
19 
16 
22 
17 
23 
23 
11 
27 
21 
19 
15 
22 
16 
24 
17 
33 
28 
28 
20 
27 
27 
12 
18 
10 
15 
17 
25 
21 
24 
15 
21 
23 
16 
21 
12 
18 
23 
17 
25 
14 
12 
13 
21 
21 
25 
18 
26 
21 
25 
12 
19 
21 
17 
27 
26 
16 
23 
18 
17 
18 
12 
18 
16 
21 
29 
24 
21 
21 
23 
26 
20 
13 
28 
17 
21 
21 
19 
29 
21 
18 
16 
18 
26 
15 
16 
26 
18 
23 
17 
15 
22 
23 
20 
16 
