ITEM: TIMESTEP
404000000
ITEM: NUMBER OF CELLS
100
ITEM: BOX BOUNDS ss rr pp
0 0.001
0 1e-05
-0.5 0.5
ITEM: CELLS c_particles[1] 
21 
13 
21 
24 
21 
22 
20 
31 
17 
15 
21 
24 
25 
28 
29 
21 
24 
24 
16 
13 
20 
23 
18 
22 
25 
22 
18 
20 
34 
13 
22 
21 
19 
26 
17 
21 
23 
19 
16 
19 
20 
21 
15 
16 
16 
22 
22 
28 
19 
16 
23 
21 
12 
14 
14 
13 
19 
19 
13 
22 
26 
21 
20 
11 
22 
19 
25 
23 
13 
18 
18 
16 
26 
21 
15 
18 
21 
17 
20 
22 
20 
25 
26 
8 
30 
23 
18 
31 
19 
18 
18 
11 
27 
20 
17 
21 
16 
16 
18 
13 
