ITEM: TIMESTEP
673800000
ITEM: NUMBER OF CELLS
100
ITEM: BOX BOUNDS ss rr pp
0 0.001
0 1e-05
-0.5 0.5
ITEM: CELLS c_particles[1] 
20 
23 
20 
22 
14 
20 
19 
23 
23 
22 
12 
24 
15 
13 
20 
13 
13 
16 
23 
21 
21 
22 
20 
18 
10 
18 
26 
25 
17 
18 
15 
25 
22 
23 
19 
19 
20 
18 
22 
23 
19 
16 
24 
17 
25 
25 
26 
20 
18 
16 
24 
29 
17 
19 
17 
19 
17 
24 
24 
17 
23 
25 
29 
16 
13 
23 
18 
23 
21 
18 
18 
21 
22 
20 
16 
18 
13 
24 
20 
15 
23 
27 
22 
18 
22 
14 
23 
22 
24 
17 
22 
19 
18 
21 
17 
20 
22 
24 
23 
16 
