ITEM: TIMESTEP
142100000
ITEM: NUMBER OF CELLS
100
ITEM: BOX BOUNDS ss rr pp
0 0.001
0 1e-05
-0.5 0.5
ITEM: CELLS f_temp1[*] 
338.556 
335.996 
341.01 
341.703 
342.847 
340.77 
340.37 
344.154 
340.747 
341.896 
339.864 
340.277 
343.667 
341.345 
342.245 
343.571 
340.495 
342.989 
343.038 
345.561 
343.094 
348.825 
343.938 
340.498 
339.272 
345.227 
343.463 
342.155 
343.216 
345.226 
341.335 
346.805 
347.089 
347.086 
344.385 
344.139 
346.814 
346.57 
347.073 
345.817 
346.737 
346.607 
348.788 
347.377 
344.73 
347.723 
348.45 
347.152 
349.95 
346.497 
349.262 
348.017 
349.512 
350.502 
347.566 
350.007 
347.915 
353.384 
349.459 
346.936 
348.687 
348.416 
348.697 
349.874 
350.175 
352.089 
348.976 
348.523 
352.831 
351.077 
350.571 
352.096 
352.548 
346.165 
351.073 
347.339 
351.137 
348.069 
348.265 
351.003 
348.553 
349.549 
351.393 
348.833 
351.491 
349.884 
352.735 
353.137 
349.615 
352.53 
351.651 
357.42 
352.058 
349.844 
355.054 
353.864 
352.991 
351.905 
354.053 
353.829 
