ITEM: TIMESTEP
287700000
ITEM: NUMBER OF CELLS
100
ITEM: BOX BOUNDS ss rr pp
0 0.001
0 1e-05
-0.5 0.5
ITEM: CELLS f_temp1[*] 
343.945 
338.752 
341.701 
340.622 
341.354 
339.893 
340.553 
341.774 
340.932 
342.488 
341.91 
339.663 
340.726 
339.608 
339.905 
342.739 
342.838 
341.605 
339.809 
341.376 
338.509 
344.212 
343.076 
341.478 
345.431 
343.266 
345.574 
342.048 
345.583 
346.703 
340.982 
342.189 
347.349 
345.548 
341.717 
343.1 
341.603 
344.104 
342.636 
344.266 
344.221 
345.548 
343.771 
348.347 
345.408 
351.969 
346.326 
348.852 
346.399 
350.952 
341.645 
346.369 
341.11 
346.168 
347.976 
345.753 
350.889 
347.451 
348.91 
349.262 
351.114 
350.476 
349.38 
350.558 
346.129 
350.122 
349.469 
349.301 
348.787 
345.347 
349.229 
346.032 
346.759 
348.195 
351.091 
353.304 
348.856 
348.346 
346.417 
349.909 
351.601 
353.294 
352.854 
348.659 
349.769 
350.074 
351.955 
354.235 
349.974 
352.894 
355.56 
350.038 
355.295 
354.441 
348.801 
345.937 
352.598 
355.122 
355.789 
351.735 
