ITEM: TIMESTEP
410800000
ITEM: NUMBER OF CELLS
100
ITEM: BOX BOUNDS ss rr pp
0 0.001
0 1e-05
-0.5 0.5
ITEM: CELLS f_temp1[*] 
341.829 
346.493 
341.439 
339.06 
341.8 
339.256 
339.986 
338.335 
344.403 
340.834 
346.447 
342.441 
339.322 
343.419 
341.62 
340.021 
338.757 
341.642 
340.195 
340.1 
340.858 
342.851 
341.453 
338.763 
345.539 
341.955 
344.894 
343.141 
345.961 
345.714 
342.457 
345.774 
344.104 
343.921 
345.774 
344.114 
347.744 
341.746 
345.403 
343.687 
345.783 
348.906 
345.146 
347.107 
348.646 
346.655 
345.388 
344.959 
346.469 
347.541 
344.507 
344.543 
342.892 
343.602 
344.779 
345.424 
346.457 
343.335 
349.219 
348.666 
347.739 
346.134 
346.045 
346.901 
348.016 
346.519 
347.163 
347.804 
342.246 
349.146 
350.001 
347.601 
347.509 
349.271 
352.502 
346.673 
352.554 
349.031 
348.818 
347.67 
351.268 
349.909 
348.687 
350.231 
350.992 
352.771 
351.303 
348.952 
350.49 
354.958 
351.455 
353.647 
354.762 
351.643 
350.236 
354.411 
353.191 
355.185 
353.903 
351.769 
