ITEM: TIMESTEP
15400000
ITEM: NUMBER OF CELLS
100
ITEM: BOX BOUNDS ss rr pp
0 0.001
0 1e-05
-0.5 0.5
ITEM: CELLS f_temp1[*] 
339.384 
342.124 
340.276 
340.536 
343.547 
337.709 
340.655 
342.996 
341.837 
341.793 
344.577 
343.759 
343.251 
340.076 
340.781 
343.138 
341.741 
343.067 
342.17 
340.645 
340.712 
345.462 
342.291 
343.988 
345.98 
346.312 
345.022 
343.22 
347.089 
344.431 
346.399 
339.422 
349.675 
345.035 
343.643 
343.365 
344.864 
345.709 
347.367 
346.434 
342.436 
347.165 
345.946 
347.916 
345.631 
347.308 
344.812 
347.865 
348.817 
348.475 
345.916 
345.949 
348.516 
346.942 
347.18 
348.429 
347.855 
347.49 
346.995 
348.028 
347.984 
345.653 
348.74 
354.167 
348.921 
350.513 
349.072 
350.078 
350.954 
349.587 
348.384 
351.119 
344.525 
353.578 
348.519 
350.229 
355.101 
355.746 
356.903 
348.864 
350.427 
353.656 
355.669 
354.376 
353.777 
353.114 
350.69 
352.438 
350.887 
354.831 
352.37 
356.912 
355.484 
354.546 
353.438 
355.705 
358.628 
357.719 
356.867 
356.705 
