ITEM: TIMESTEP
444300000
ITEM: NUMBER OF CELLS
100
ITEM: BOX BOUNDS ss rr pp
0 0.001
0 1e-05
-0.5 0.5
ITEM: CELLS f_temp1[*] 
338.346 
340.291 
345.463 
339.664 
340.407 
340.682 
341.106 
340.997 
343.593 
342.868 
345.702 
343.374 
343.122 
339.88 
346.583 
344.468 
341.219 
339.694 
343.116 
342.599 
342.574 
342.208 
340.937 
340.395 
339.976 
344.408 
346.528 
347.978 
342.465 
345.6 
342.819 
345.08 
349.033 
342.716 
345.209 
347.284 
345.5 
344.109 
340.491 
347.656 
343.558 
344.51 
347.403 
349.576 
346.383 
346.928 
344.312 
345.361 
343.054 
344.791 
348.528 
345.921 
345.122 
345.525 
344.767 
345.737 
348.438 
345.823 
343.822 
345.294 
344.879 
347.276 
350.777 
345.412 
346.111 
347.404 
349.237 
349.224 
350.18 
347.331 
347.683 
347.296 
346.623 
348.45 
348.417 
349.977 
345.904 
345.876 
350.815 
352.152 
352.974 
351.828 
352.945 
352.371 
350.429 
349.604 
353.432 
353.933 
356.476 
352.782 
352.347 
349.446 
354.613 
348.551 
353.145 
353.896 
354.455 
349.561 
351.644 
352.658 
