ITEM: TIMESTEP
772600000
ITEM: NUMBER OF CELLS
100
ITEM: BOX BOUNDS ss rr pp
0 0.001
0 1e-05
-0.5 0.5
ITEM: CELLS f_temp1[*] 
340.317 
340.407 
340.57 
337.002 
338.696 
337.667 
339.575 
341.302 
342.15 
344.677 
341.219 
342.848 
342.673 
343.373 
344.022 
341.109 
339.903 
346.052 
340.78 
345.753 
343.787 
343.136 
342.897 
342.858 
341.766 
339.373 
346.734 
345.455 
347.858 
349.082 
344.275 
344.489 
345.994 
343.182 
345.824 
343.774 
344.64 
346.079 
344.901 
348.938 
345.591 
347.047 
344.233 
343.227 
345.712 
348.987 
347.806 
345.39 
346.994 
348.427 
345.642 
346.59 
346.24 
345.475 
346.945 
346.769 
349.082 
345.255 
347.708 
347.333 
350.953 
348.513 
349.193 
349.504 
350.275 
353.078 
348.856 
350.836 
349.674 
346.93 
351.534 
350.9 
351.143 
350.695 
354.396 
347.819 
350.345 
351.609 
348.945 
351.325 
351.593 
353.258 
353.007 
354.158 
354.664 
351.431 
350.862 
355.367 
354.308 
352.562 
354.978 
352.366 
353.711 
358.324 
350.876 
353.132 
355.01 
353.113 
353.792 
354.219 
