ITEM: TIMESTEP
553500000
ITEM: NUMBER OF CELLS
100
ITEM: BOX BOUNDS ss rr pp
0 0.001
0 1e-05
-0.5 0.5
ITEM: CELLS f_temp1[*] 
340.856 
338.347 
340.48 
341.657 
340.442 
344.576 
342.851 
345.181 
342.322 
342.107 
344.259 
339.392 
345.456 
343.571 
341.724 
344.587 
345.016 
346.51 
344.542 
346.743 
343.421 
345.539 
342.621 
346.178 
343.944 
346.76 
348.607 
351.348 
342.306 
346.212 
349.713 
344.54 
346.425 
344.603 
345.315 
348.039 
347.139 
347.044 
344.626 
349.911 
347.096 
344.682 
348.081 
345.96 
346.281 
348.371 
348.708 
347.66 
348.836 
347.749 
348.444 
349.574 
349.886 
352.56 
347.909 
350.552 
345.256 
348.293 
347.978 
346.96 
348.513 
348.437 
350.232 
350.523 
350.747 
351.747 
349.966 
350.383 
348.047 
347.95 
353.498 
350.534 
349.619 
347.391 
350.716 
350.434 
349.71 
353.15 
352.591 
350.279 
352.713 
350.748 
352.56 
349.2 
353.083 
353.018 
354.196 
354.766 
354.891 
352.569 
351.543 
351.293 
351.845 
352.394 
351.211 
352.006 
351.848 
356.394 
353.85 
351.837 
