ITEM: TIMESTEP
231200000
ITEM: NUMBER OF CELLS
100
ITEM: BOX BOUNDS ss rr pp
0 0.001
0 1e-05
-0.5 0.5
ITEM: CELLS f_temp1[*] 
339.671 
341.317 
344.019 
339.863 
337.494 
341.536 
339.133 
345.602 
341.146 
343.152 
342.694 
341.536 
342.516 
341.191 
343.105 
343.129 
344.432 
343.725 
344.97 
344.199 
346.036 
345.072 
346.006 
346.689 
343.213 
346.656 
346.283 
343.622 
345.426 
344.692 
345.73 
349.409 
347.35 
347.129 
343.326 
345.599 
345.396 
345.822 
342.672 
346.635 
344.752 
344.778 
347.982 
345.492 
345.734 
345.965 
345.975 
348.185 
347.348 
346.569 
345.052 
348.171 
345.763 
348.338 
344.909 
350.373 
350.768 
348.447 
351.575 
348.057 
350.528 
349.765 
347.487 
349.597 
346.549 
353.283 
347.629 
347.432 
352.216 
353.184 
346.744 
353.632 
347.825 
349.464 
350.926 
349.947 
349.303 
352.05 
350.284 
349.969 
351.198 
351.053 
351.775 
353.904 
352.059 
355.414 
351.528 
350.932 
353.388 
351.032 
350.781 
352.661 
350.07 
352.162 
350.224 
356.529 
353.655 
351.105 
353.68 
353.466 
