ITEM: TIMESTEP
188000000
ITEM: NUMBER OF CELLS
100
ITEM: BOX BOUNDS ss rr pp
0 0.001
0 1e-05
-0.5 0.5
ITEM: CELLS f_temp1[*] 
340.76 
341.456 
343.846 
342.034 
340.418 
338.319 
339.648 
342.151 
346.139 
345.231 
343.766 
343.675 
342.422 
345.19 
341.941 
344.618 
342.698 
345.807 
342.92 
344.685 
344.103 
345.666 
348.268 
342.85 
346.604 
344.567 
342.266 
341.09 
345.986 
343.547 
342.122 
343.295 
346.119 
345.565 
344.097 
344.617 
349.202 
343.751 
344.951 
348.726 
346.482 
343.36 
348.754 
347.917 
343.293 
345.452 
348.112 
350.856 
347.496 
348.478 
348.942 
344.872 
346.387 
346.049 
348.519 
346.361 
342.462 
349.958 
346.184 
348.125 
349.856 
348.078 
350.677 
348.508 
351.567 
348.853 
347.158 
347.779 
349.401 
348.244 
347.884 
354.307 
349.967 
349.298 
349.847 
351.726 
350.74 
350.83 
351.217 
349.125 
350.843 
350.718 
353.139 
349.127 
351.203 
351.618 
351.445 
352.37 
349.768 
351.441 
352.65 
353.269 
351.516 
349.291 
353.049 
353.205 
348.674 
353.515 
357.187 
352.38 
