ITEM: TIMESTEP
187900000
ITEM: NUMBER OF CELLS
100
ITEM: BOX BOUNDS ss rr pp
0 0.001
0 1e-05
-0.5 0.5
ITEM: CELLS f_temp1[*] 
342.508 
339.573 
343.694 
336.809 
339.253 
341.342 
342.765 
339.843 
341.518 
341.04 
340.944 
344.827 
337.489 
344.553 
342.969 
344.447 
339.949 
343.394 
338.529 
340.916 
340.634 
341.983 
345.15 
343.097 
344.371 
340.129 
341.645 
343.584 
339.9 
341.586 
343.612 
344.821 
345.891 
345.787 
343.006 
341.38 
347.088 
345.108 
342.24 
347.127 
348.225 
348.228 
344.231 
347.579 
344.571 
346.175 
346.088 
348.508 
342.087 
345.499 
347.434 
343.71 
346.316 
349.811 
346.563 
350.075 
348.821 
346.525 
348.62 
353.441 
346.679 
348.952 
347.035 
347.62 
350.236 
353.123 
350.925 
346.613 
348.299 
348.651 
348.61 
352.728 
349.221 
347.916 
346.515 
349.529 
349.205 
348.616 
347.405 
350.131 
353.388 
349.693 
350.221 
345.671 
350.205 
352.477 
351.354 
351.506 
350.456 
354.06 
352.777 
353.067 
353.184 
347.981 
350.653 
352.935 
356.999 
353.921 
354.725 
353.308 
