ITEM: TIMESTEP
490900000
ITEM: NUMBER OF CELLS
100
ITEM: BOX BOUNDS ss rr pp
0 0.001
0 1e-05
-0.5 0.5
ITEM: CELLS f_temp1[*] 
338.133 
339.96 
338.921 
344.425 
340.219 
340.29 
338.787 
342.971 
343.719 
338.952 
343.314 
339.241 
341.242 
345.059 
339.492 
347.087 
347.038 
344.098 
343.417 
344.52 
338.592 
344.834 
345.019 
345.219 
344.435 
342.295 
344.095 
343.91 
343.88 
344.014 
343.249 
342.439 
350.168 
344.446 
346.665 
343.888 
346.019 
347.157 
344.563 
344.653 
342.499 
344.205 
349.567 
346.48 
346.779 
349.191 
347.048 
346.814 
346.236 
348.073 
344.917 
347.607 
352.966 
347.195 
346.69 
350.326 
348.881 
351.495 
348.815 
351.053 
352.32 
346.274 
349.801 
349.838 
347.398 
345.088 
349.373 
348.268 
347.408 
347.919 
347.872 
351.993 
347.347 
347.988 
351.136 
348.65 
347.06 
348.051 
354.68 
351.716 
350.802 
350.685 
349.192 
348.177 
346.644 
352.334 
346.644 
350.36 
354.546 
348.13 
350.745 
351.649 
349.907 
354.67 
352.869 
353.547 
353.082 
351.094 
352.581 
353.83 
