ITEM: TIMESTEP
145300000
ITEM: NUMBER OF CELLS
100
ITEM: BOX BOUNDS ss rr pp
0 0.001
0 1e-05
-0.5 0.5
ITEM: CELLS f_temp1[*] 
336.568 
338.387 
340.082 
341.462 
341.74 
340.344 
345.612 
345.094 
341.829 
339.722 
344.844 
344.783 
345.429 
340.628 
345.003 
340.467 
347.168 
340.512 
341.9 
340.516 
340.737 
342.327 
343.657 
341.694 
341.444 
341.865 
345.83 
344.049 
346.328 
347.694 
345.294 
344.941 
341.653 
348.117 
345.836 
347.721 
344.47 
345.103 
346.143 
347.087 
346.008 
347.1 
346.295 
346.344 
348.215 
344.354 
349.923 
348.425 
341.653 
348.316 
347.483 
346.216 
346.621 
347.716 
349.246 
349.624 
348.426 
348.887 
352.896 
347.674 
348.082 
351.034 
349.161 
347.931 
344.272 
346.995 
350.371 
348.33 
345.286 
349.294 
351.821 
349.03 
349.34 
346.542 
354.938 
351.147 
348.972 
354.038 
350.944 
349.43 
347.59 
355.065 
354.111 
354.72 
347.79 
351.111 
350.441 
353.799 
352.28 
350.851 
354.536 
356.085 
351.658 
351.588 
352.376 
353.9 
355.722 
352.205 
355.257 
352.004 
