ITEM: TIMESTEP
289400000
ITEM: NUMBER OF CELLS
100
ITEM: BOX BOUNDS ss rr pp
0 0.001
0 1e-05
-0.5 0.5
ITEM: CELLS f_temp1[*] 
340.03 
342.073 
341.49 
343.22 
338.763 
339.994 
340.76 
341.85 
342.957 
337.39 
341.782 
340.095 
335.342 
345.674 
341.567 
341.84 
340.745 
340.49 
344.056 
341.457 
341.7 
345.827 
340.138 
340.375 
340.753 
343.287 
345.543 
340.681 
341.202 
343.249 
340.994 
341.471 
340.707 
347.934 
343.892 
344.413 
343.735 
344.886 
341.188 
349.974 
344.687 
342.703 
346.135 
344.733 
346.189 
345.587 
347.942 
342.957 
348.921 
348.254 
349.414 
346.792 
345.087 
350.791 
345.186 
344.218 
350.713 
349.909 
347.229 
346.042 
351.449 
345.218 
344.147 
349.321 
347.294 
349.106 
346.973 
347.295 
347.741 
351.771 
349.49 
348.071 
350.797 
350.627 
351.606 
349.827 
351.123 
349.407 
348.168 
350.684 
355.615 
347.754 
348.508 
350.715 
353.068 
348.777 
352.655 
351.61 
352.149 
352.999 
349.253 
351.459 
354.464 
351.255 
354.225 
354.896 
354.883 
353.759 
349.795 
352.351 
