ITEM: TIMESTEP
295600000
ITEM: NUMBER OF CELLS
100
ITEM: BOX BOUNDS ss rr pp
0 0.001
0 1e-05
-0.5 0.5
ITEM: CELLS f_temp1[*] 
343.567 
337.708 
336.323 
339.718 
334.747 
340.327 
337.476 
340.645 
340.469 
340.29 
344.164 
341.874 
343.727 
341.521 
343.621 
338.338 
343.925 
341.8 
343.246 
341.925 
338.564 
344.538 
341.909 
341.557 
340.509 
343.356 
345.795 
345.614 
340.553 
341.293 
340.911 
343.656 
345.554 
345.729 
343.826 
344.575 
347.561 
348.333 
346.33 
346.114 
344.752 
343.601 
340.994 
344.247 
341.474 
343.317 
346.596 
347.737 
340.155 
343.572 
344.481 
347.425 
348.582 
346.655 
347.073 
341.939 
346.821 
348.965 
348.565 
347.512 
347.466 
346.163 
347.685 
344.88 
345.996 
347.033 
350.357 
348.408 
350.699 
350.605 
347.309 
349.477 
350.753 
351.751 
345.654 
353.291 
350.463 
351.031 
350.714 
351.15 
353.47 
350.487 
351.541 
352.608 
348.107 
351.42 
349.046 
350.077 
353.222 
349.438 
349.945 
352.728 
352.926 
347.781 
350.573 
348.87 
354.185 
352.281 
350.939 
353.879 
