ITEM: TIMESTEP
508100000
ITEM: NUMBER OF CELLS
100
ITEM: BOX BOUNDS ss rr pp
0 0.001
0 1e-05
-0.5 0.5
ITEM: CELLS f_temp1[*] 
338.656 
341.853 
338.044 
341.894 
341.61 
342.746 
340.296 
344.182 
341.836 
340.341 
341.571 
345.079 
344.457 
342.115 
342.273 
344.23 
341.626 
344.632 
346.574 
343.904 
343.006 
342.459 
340.466 
347.497 
340.494 
345.046 
345.63 
345.375 
344.077 
346.789 
346.217 
345.914 
344.053 
344.471 
346.331 
348.007 
344.421 
342.007 
346.586 
346.041 
345.437 
345.517 
343.464 
344.081 
341.894 
345.956 
348.38 
346.95 
347.643 
348.12 
346.877 
348.659 
346.499 
348.407 
342.766 
347.462 
349.87 
350.535 
350.428 
349.672 
346.365 
350.498 
346.11 
347.897 
349.067 
349.672 
350.261 
349.531 
357.403 
349.776 
352.212 
349.447 
354.24 
349.96 
349.006 
348.621 
350.797 
353.289 
352.898 
350.466 
352.046 
349.583 
350.207 
351.953 
353.454 
354.57 
355.291 
353.721 
356.588 
353.428 
353.198 
354.95 
354.562 
349.888 
347.884 
356.338 
352.549 
352.137 
353.274 
354.717 
