ITEM: TIMESTEP
746000000
ITEM: NUMBER OF CELLS
100
ITEM: BOX BOUNDS ss rr pp
0 0.001
0 1e-05
-0.5 0.5
ITEM: CELLS f_temp1[*] 
341.639 
339.079 
342.956 
338.225 
337.157 
343.71 
342.234 
341.003 
340.995 
342.566 
340.216 
346.075 
341.197 
345.87 
341.156 
340.883 
340.7 
344.375 
343.415 
343.872 
342.875 
342.116 
340.637 
344.699 
346.867 
343.81 
343.417 
343.248 
347.895 
345.087 
343.684 
342.715 
345.71 
344.45 
345.936 
344.364 
345.56 
345.262 
344.131 
346.805 
345.51 
345.979 
342.366 
345.006 
343.172 
346.812 
348.049 
347.106 
346.126 
348.999 
347.951 
347.604 
348.108 
350.954 
349.837 
350.537 
347.967 
349.855 
345.429 
351.708 
347.567 
349.876 
348.834 
349.613 
347.101 
349.026 
349.199 
351.22 
348.09 
346.881 
348.218 
347.734 
348.205 
349.206 
349.18 
351.274 
349.735 
349.258 
348.31 
349.819 
352.597 
350.659 
353.259 
353.658 
349.668 
352.958 
353.412 
351.807 
352.439 
351.162 
355.18 
349.572 
352.644 
351.573 
352.583 
356.235 
350.915 
352.108 
352.251 
355.251 
