ITEM: TIMESTEP
634900000
ITEM: NUMBER OF CELLS
100
ITEM: BOX BOUNDS ss rr pp
0 0.001
0 1e-05
-0.5 0.5
ITEM: CELLS f_temp1[*] 
339.634 
339.484 
341.082 
339.477 
338.897 
343.02 
336.893 
340.053 
338.04 
340.785 
341.41 
340.616 
339.469 
342.914 
338.751 
338.755 
339.296 
339.411 
341.574 
339.362 
341.966 
343.877 
340.859 
344.653 
344.539 
343.917 
345.309 
340.724 
339.73 
344.912 
341.639 
340.79 
344.679 
346.631 
344.028 
342.418 
342.425 
342.873 
345.887 
344.482 
346.353 
346.318 
345.729 
349.828 
345.642 
344.733 
346.555 
349.576 
344.55 
343.55 
345.9 
343.582 
343.864 
345.416 
343.897 
346.704 
348.791 
345.425 
346.266 
345.444 
344.482 
346.511 
345.083 
347.711 
346.847 
348.938 
345.506 
349.846 
351.953 
349.17 
346.644 
345.909 
349.902 
347.24 
350.877 
349.409 
350.098 
352.66 
350.115 
349.134 
346.623 
352.014 
353.43 
347.713 
350.714 
348.723 
350.756 
350.737 
349.146 
346.374 
349.404 
350.359 
351.382 
351.937 
350.64 
349.045 
351.518 
353.441 
350.472 
350.618 
