ITEM: TIMESTEP
228500000
ITEM: NUMBER OF CELLS
100
ITEM: BOX BOUNDS ss rr pp
0 0.001
0 1e-05
-0.5 0.5
ITEM: CELLS f_temp1[*] 
340.774 
340.865 
337.536 
339.93 
342.903 
341.318 
339.642 
340.673 
338.992 
341.709 
340.11 
346.973 
341.806 
341.492 
340.94 
340.541 
341.766 
344.99 
340.219 
341.044 
344.796 
344.588 
342.195 
340.736 
341.673 
342.66 
341.968 
340.94 
343.422 
342.347 
347.295 
341.839 
346.263 
345.149 
341.841 
343.63 
344.499 
343.334 
346.489 
344.466 
344.993 
344.525 
346.008 
345.398 
348.306 
350.016 
346.823 
343.621 
348.123 
346.336 
344.57 
345.002 
351.332 
346.249 
345.403 
348.811 
344.159 
349.305 
347.2 
347.108 
346.956 
345.125 
345.238 
347.76 
347.172 
345.489 
352.118 
349.647 
349.165 
353.062 
350.206 
349.958 
350.381 
349.425 
352.32 
351.023 
346.242 
348.666 
348.09 
347.092 
349.99 
350.065 
353.876 
348.974 
347.274 
351.212 
353.152 
354.522 
352.596 
352.768 
349.122 
354.196 
353.014 
350.311 
354.758 
353.356 
353.631 
353.425 
350.569 
352.034 
