ITEM: TIMESTEP
495000000
ITEM: NUMBER OF CELLS
100
ITEM: BOX BOUNDS ss rr pp
0 0.001
0 1e-05
-0.5 0.5
ITEM: CELLS f_temp1[*] 
345.298 
337.333 
341.364 
338.728 
341.115 
340.321 
345.124 
337.227 
339.719 
338.881 
341.089 
343.446 
339.194 
342.634 
342.206 
343.362 
341.776 
341.945 
340.612 
342.083 
342.549 
342.676 
345.146 
343.94 
346.059 
340.718 
343.248 
345.618 
347.45 
341.348 
342.108 
344.085 
347.479 
341.789 
345.404 
343.946 
345.302 
339.853 
342.129 
348.275 
341.471 
344.583 
345.783 
345.32 
344.605 
349.03 
343.594 
347.925 
346.309 
345.199 
348.028 
348.555 
346.001 
347.371 
346.868 
344.858 
346.401 
346.226 
342.106 
348.931 
348.919 
348.499 
347.566 
342.265 
344.729 
349.643 
351.164 
346.222 
347.237 
350.727 
350.606 
349.521 
348.771 
349.125 
346.896 
346.396 
350.748 
350.641 
346.536 
350.651 
349.989 
352.146 
351.678 
351.185 
354.806 
351.307 
353.279 
350.812 
350.061 
353.084 
347.767 
351.935 
353.4 
354.071 
354.707 
352.04 
352.738 
350.538 
356.663 
354.155 
