ITEM: TIMESTEP
491500000
ITEM: NUMBER OF CELLS
100
ITEM: BOX BOUNDS ss rr pp
0 0.001
0 1e-05
-0.5 0.5
ITEM: CELLS f_temp1[*] 
338.619 
340.761 
344.222 
346.939 
342.954 
342.215 
340.991 
339.554 
342.35 
342.558 
341.386 
342.563 
345.496 
344.13 
343.202 
344.385 
343.777 
340.243 
341.721 
342.078 
345.578 
347.504 
342.52 
343.037 
344.771 
341.71 
346.353 
345.286 
347.083 
344.515 
351.475 
342.564 
344.729 
344.805 
345.944 
343.694 
346.339 
342.764 
346.526 
346.734 
348.837 
341.685 
349.09 
344.878 
345.138 
346.374 
347.174 
346.489 
345.899 
347.498 
345.124 
348.577 
344.874 
347.851 
344.551 
341.785 
348.691 
343.269 
348.925 
349.41 
342.371 
346.552 
349.211 
347.868 
347.318 
348.773 
346.36 
347.429 
351.069 
349.163 
350.977 
348.306 
350.229 
349.992 
354.495 
351.073 
346.45 
351.929 
351.536 
351.366 
350.532 
353.216 
351.448 
348.473 
350.522 
347.952 
354.863 
349.453 
350.212 
353.508 
352.902 
353.601 
348.421 
352.318 
350.88 
352.006 
352.479 
351.969 
348.921 
356.053 
