ITEM: TIMESTEP
362100000
ITEM: NUMBER OF CELLS
100
ITEM: BOX BOUNDS ss rr pp
0 0.001
0 1e-05
-0.5 0.5
ITEM: CELLS f_temp1[*] 
339.006 
334.597 
339.642 
339.48 
337.736 
338.764 
341.998 
338.047 
335.747 
340.904 
341.35 
344.42 
342.117 
339.897 
339.207 
336.183 
337.161 
343.313 
340.454 
341.951 
342.187 
345.192 
341.455 
341.294 
344.94 
341.225 
341.799 
347.16 
341.418 
339.278 
343.199 
341.952 
346.323 
342.936 
344.973 
345.68 
347.464 
346.011 
346.749 
342 
341.064 
345.509 
346.74 
342.066 
344.833 
344.503 
343.29 
342.036 
346.444 
349.311 
344.093 
344.7 
348.829 
345.4 
345.891 
348.627 
348.65 
346.01 
345.315 
348.868 
349.593 
345.491 
349.041 
346.358 
348.759 
353.204 
351.373 
350.139 
350.861 
350.708 
353.309 
351.22 
348.14 
349.917 
347.152 
349.975 
346.846 
347.309 
350.436 
349.513 
352.225 
349.231 
349.335 
350.811 
347.94 
347.558 
349.208 
352.706 
354.469 
350.843 
352.641 
353.047 
351.429 
353.172 
349.72 
351.038 
353.793 
356.005 
352.516 
352.853 
