ITEM: TIMESTEP
422800000
ITEM: NUMBER OF CELLS
100
ITEM: BOX BOUNDS ss rr pp
0 0.001
0 1e-05
-0.5 0.5
ITEM: CELLS f_temp1[*] 
339.188 
340.277 
340.945 
342.05 
338.45 
339.794 
341.903 
342.449 
348.537 
338.977 
339.613 
342.139 
339.975 
340.693 
338.911 
342.772 
342.258 
341.031 
340.583 
339.735 
341.784 
342.978 
344.265 
344.792 
340.688 
345.219 
345.538 
341.857 
343.093 
341.116 
347.559 
344.35 
343.222 
346.296 
342.062 
344.606 
346.037 
340.979 
344.808 
343.727 
346.023 
343.323 
344.065 
343.183 
344.492 
343.63 
346.667 
346.43 
341.432 
346.776 
344.832 
339.772 
345.928 
347.883 
349.707 
348.844 
348.718 
347.816 
349.834 
347.419 
349.64 
347.657 
349.247 
348.217 
347.001 
349.724 
350.748 
348.834 
353.898 
349.016 
347.875 
347.487 
348.341 
351.341 
350.797 
349.609 
344.212 
350.806 
350.835 
350.063 
350.138 
351.933 
354.326 
348.967 
350.878 
354.053 
351.375 
349.653 
350.595 
350.877 
355.155 
350.421 
350.061 
351.419 
357.612 
353.144 
352.399 
356.677 
354.837 
354.47 
