ITEM: TIMESTEP
259100000
ITEM: NUMBER OF CELLS
100
ITEM: BOX BOUNDS ss rr pp
0 0.001
0 1e-05
-0.5 0.5
ITEM: CELLS f_temp1[*] 
341.2 
341.096 
335.455 
339.138 
344.49 
340.261 
341.507 
341.907 
340.832 
338.906 
343.156 
340.287 
341.365 
340.32 
341.837 
339.874 
340.695 
340.815 
344.865 
341.594 
346.634 
342.1 
342.322 
339.429 
343.192 
342.462 
344.9 
341.962 
346.471 
346.721 
343.542 
348.32 
346.555 
348.458 
345.652 
344.187 
344.658 
345.51 
344.083 
346.737 
346.108 
346.998 
344.787 
346.766 
344.177 
344.749 
343.108 
347.804 
347.972 
344.589 
347.955 
345.577 
345.193 
345.6 
350.245 
346.867 
350.61 
345.418 
347.356 
347.58 
351.598 
351.5 
346.286 
345.558 
348.459 
348.084 
348.754 
350.658 
348.477 
349.283 
348.99 
345.708 
348.679 
347.702 
346.791 
351.2 
355.753 
350.756 
347.669 
348.613 
349.692 
346.434 
354.38 
351.11 
355.373 
351.908 
350.151 
351.016 
354.451 
349.152 
349.112 
352.473 
349.095 
349.397 
347.984 
355.237 
351.093 
351.081 
353.792 
352.732 
