ITEM: TIMESTEP
628600000
ITEM: NUMBER OF CELLS
100
ITEM: BOX BOUNDS ss rr pp
0 0.001
0 1e-05
-0.5 0.5
ITEM: CELLS f_temp1[*] 
340.501 
341.082 
340.139 
340.446 
344.632 
340.449 
339.794 
339.743 
336.376 
341.082 
342.119 
337.219 
343.804 
341.808 
342.173 
341.072 
341.124 
340.212 
342.937 
341.708 
341.063 
340.504 
341.014 
343.716 
343.593 
337.991 
343.439 
343.645 
343.902 
343.059 
344.743 
344.884 
342.197 
344.648 
347.702 
344.784 
340 
345.567 
342.264 
346.816 
345.732 
345.197 
346.952 
348.091 
342.602 
342.77 
343.016 
345.18 
348.24 
349.464 
346.412 
347.833 
344.742 
347.862 
346.28 
345.412 
348.616 
345.182 
347.612 
347.785 
350.666 
349.672 
350.349 
353.369 
348.969 
346.745 
345.687 
345.213 
351.066 
349.378 
347.062 
347.861 
351.08 
348.42 
348.268 
350.226 
345.768 
347.685 
346.805 
354.188 
352.946 
348.419 
348.236 
348.082 
351.124 
351.608 
351.355 
356.05 
355.297 
350.857 
353.637 
350.339 
353.651 
351.762 
353.11 
353.788 
355.248 
356.185 
355.043 
354.913 
