ITEM: TIMESTEP
108900000
ITEM: NUMBER OF CELLS
100
ITEM: BOX BOUNDS ss rr pp
0 0.001
0 1e-05
-0.5 0.5
ITEM: CELLS f_temp1[*] 
344.05 
342.022 
339.347 
338.562 
340.308 
340.241 
340.319 
339.578 
341.023 
342.039 
339.338 
340.567 
340.644 
338.372 
343.583 
342.099 
336.799 
343.423 
344.119 
344.694 
342.345 
342.009 
341.9 
340.923 
342.158 
339.431 
347.224 
342.989 
346.397 
344.523 
346.526 
345.497 
342.828 
343.302 
342.597 
346.898 
345.918 
344.855 
348.009 
342.92 
342.053 
348.23 
345.073 
345.235 
346.958 
342.642 
345.316 
344.654 
347.046 
346.48 
348.239 
349.996 
344.357 
342.904 
352.93 
346.322 
349.025 
345.505 
347.41 
347.855 
348.251 
349.751 
351.775 
349.929 
351.855 
350.812 
348.054 
350.707 
348.516 
349.367 
351.899 
350.566 
350.612 
350.66 
343.347 
345.737 
348.418 
347.384 
350.09 
351.67 
349.531 
355.238 
347.335 
352.332 
353.787 
349.508 
350.356 
349.527 
353.147 
354.513 
350.123 
356.492 
355.671 
350.894 
352.052 
355.448 
355.221 
355.355 
353.765 
353.074 
