ITEM: TIMESTEP
621400000
ITEM: NUMBER OF CELLS
100
ITEM: BOX BOUNDS ss rr pp
0 0.001
0 1e-05
-0.5 0.5
ITEM: CELLS f_temp1[*] 
339.97 
340.788 
341.003 
340.15 
340.646 
344.846 
335.618 
344.179 
338.612 
342.552 
344.926 
342.05 
344.178 
343.151 
346.289 
340.577 
343.458 
344.592 
343.564 
339.663 
341.696 
345.215 
343.317 
346.195 
338.589 
341.006 
343.785 
342.414 
343.66 
343.524 
342.22 
343.182 
343.16 
344.46 
344.802 
347.033 
344.222 
342.444 
343.992 
346.905 
346.679 
343.45 
349.834 
348.938 
345.159 
342.422 
343.292 
342.448 
345.364 
347.774 
345.17 
350.459 
347.144 
347.968 
350.287 
340.813 
346.23 
345.753 
348.676 
345.15 
345.644 
342.645 
345.978 
348.902 
347.389 
350.414 
345.89 
348.427 
347.41 
348.752 
350.454 
346.462 
346.444 
348.348 
349.3 
346.914 
352.744 
349.318 
350.534 
348.803 
350.022 
351.228 
352.262 
354.159 
347.102 
349.111 
353.354 
356.116 
350.536 
351.763 
353.013 
350.613 
349.984 
353.829 
353.48 
351.943 
349.944 
351.931 
352.301 
356.937 
