ITEM: TIMESTEP
220000000
ITEM: NUMBER OF CELLS
100
ITEM: BOX BOUNDS ss rr pp
0 0.001
0 1e-05
-0.5 0.5
ITEM: CELLS f_temp1[*] 
339.891 
341.154 
344.711 
344.376 
343.007 
338.395 
345.562 
341.158 
343.576 
343.266 
346.103 
343.621 
341.385 
344.313 
346.941 
346.305 
346.542 
340.371 
347.441 
344.27 
347.937 
341.864 
344.71 
346.064 
346.201 
343.557 
347.201 
342.512 
342.106 
341.647 
346.674 
347.47 
344.586 
344.698 
342.889 
349.312 
343.563 
346.011 
347.865 
345.889 
346.241 
349.623 
348.466 
346.472 
345.403 
348.553 
348.833 
345.182 
347.052 
345.507 
351.769 
343.819 
350.748 
349.031 
350.196 
350.964 
350.345 
350.773 
349.821 
347.617 
349.539 
345.939 
352.867 
354.273 
348.472 
350.58 
348.839 
352.699 
351.125 
350.183 
346.751 
355.866 
351.752 
351.099 
352.177 
353.179 
354.742 
354.053 
349.715 
352.56 
349.181 
350.153 
352.481 
354.291 
351.006 
351.997 
352.192 
351.823 
354.857 
352.241 
352.891 
353.451 
354.792 
352.604 
352.754 
357.391 
350.397 
350.807 
351.649 
352.393 
