ITEM: TIMESTEP
696800000
ITEM: NUMBER OF CELLS
100
ITEM: BOX BOUNDS ss rr pp
0 0.001
0 1e-05
-0.5 0.5
ITEM: CELLS f_temp1[*] 
338.649 
341.233 
339.677 
343.241 
342.392 
340.189 
340.035 
340.851 
344.592 
344.44 
340.276 
345.749 
341.275 
341.451 
343.035 
341.614 
342.575 
344.097 
344.351 
342.865 
343.753 
342.578 
340.369 
345.781 
343.973 
343.316 
340.889 
343.373 
344.177 
345.421 
339.393 
344.216 
342.335 
346.033 
342.027 
343.883 
345.336 
346.985 
345.427 
343.223 
339.747 
342.662 
345.294 
343.31 
346.673 
347.198 
345.516 
348.224 
344.524 
345.804 
347.806 
348.864 
342.764 
351.025 
346.279 
349.16 
346.556 
347.756 
348.642 
350.077 
348.562 
348.368 
346.098 
344.474 
349.169 
346.002 
350.563 
348.348 
351.633 
347.388 
350.55 
346.361 
351.57 
348.871 
346.005 
354.112 
349.661 
349.997 
351.764 
349.822 
351.308 
350.289 
351.485 
352.932 
348.851 
352.849 
346.997 
354.992 
350.956 
350.803 
352.669 
352.058 
353.096 
352.472 
351.992 
354.849 
356.407 
350.798 
353.572 
354.148 
