ITEM: TIMESTEP
532700000
ITEM: NUMBER OF CELLS
100
ITEM: BOX BOUNDS ss rr pp
0 0.001
0 1e-05
-0.5 0.5
ITEM: CELLS f_temp1[*] 
338.581 
340.028 
339.439 
335.404 
335.814 
335.581 
336.916 
339.761 
338.31 
342.473 
341.204 
339.036 
342.17 
338.019 
338.234 
339.373 
345.428 
341.258 
344.232 
342.961 
341.713 
343.189 
342.641 
344.243 
344.876 
341.044 
344.886 
345.585 
342.412 
344.908 
342.894 
345.285 
343.586 
342.063 
345.313 
339.584 
345.403 
345.768 
341.224 
338.76 
346.46 
343.224 
343.432 
345.576 
343.223 
348.294 
349.079 
346.957 
344.159 
347.312 
342.988 
344.08 
346.444 
345.235 
345.252 
345.743 
344.359 
346.348 
344.843 
345.978 
347.287 
347.309 
344.651 
346.727 
349.784 
347.11 
350.897 
345.608 
345.599 
348.453 
349.049 
352.628 
348.871 
350.519 
349.38 
349.839 
350.543 
349.508 
347.072 
349.054 
347.33 
347.388 
349.222 
351.363 
350.175 
351.654 
350.549 
354.506 
349.346 
351.56 
352.801 
354.162 
354.22 
353.87 
352.397 
352.963 
354.474 
352.966 
352.774 
349.465 
