ITEM: TIMESTEP
37800000
ITEM: NUMBER OF CELLS
100
ITEM: BOX BOUNDS ss rr pp
0 0.001
0 1e-05
-0.5 0.5
ITEM: CELLS f_temp1[*] 
342.613 
338.309 
336.702 
340.902 
339.656 
343.448 
338.015 
341.584 
340.558 
342.291 
345.526 
345.507 
340.991 
344.638 
341.49 
342.494 
338.327 
343.823 
342.037 
346.514 
345.719 
342.623 
342.269 
341.522 
345.41 
346.481 
341.499 
341.156 
341.334 
345.243 
342.932 
343.324 
351.576 
344.462 
342.062 
344.364 
343.276 
345.208 
344.472 
349.372 
347.598 
344.923 
347.505 
342.508 
343.178 
346.582 
348.435 
346.826 
350.429 
347.156 
346.619 
348.084 
344.074 
347.568 
349.437 
345.127 
349.967 
349.171 
347.298 
346.348 
348.142 
346.067 
346.876 
349.01 
349.378 
351.555 
351.975 
353.187 
346.6 
349.001 
351.319 
350.97 
351.729 
347.307 
348.906 
350.115 
348.914 
346.447 
352.369 
347.543 
350.069 
347.921 
348.815 
349.701 
353.686 
350.073 
351.859 
351.326 
350.659 
350.701 
348.2 
348.218 
350.364 
354.827 
352.382 
353.921 
354.347 
350.427 
358.65 
355.203 
