ITEM: TIMESTEP
357900000
ITEM: NUMBER OF CELLS
100
ITEM: BOX BOUNDS ss rr pp
0 0.001
0 1e-05
-0.5 0.5
ITEM: CELLS f_temp1[*] 
337.772 
336.991 
339.166 
336.624 
345.339 
336.226 
339.065 
339.159 
339.857 
341.076 
338.105 
341.413 
339.783 
339.907 
342.434 
342.39 
343.712 
340.828 
342.005 
341.066 
343.297 
343.124 
341.749 
342.761 
342.885 
344.533 
340.785 
341.045 
347.14 
345.536 
341.391 
344.215 
343.52 
346.327 
342.46 
342.872 
345.449 
346.747 
343.118 
347.979 
347.992 
349.449 
344.416 
347.213 
341.562 
344.206 
345.38 
344.242 
346.337 
344.028 
346.586 
345.793 
346.121 
341.931 
347.458 
348.759 
349.053 
344.45 
346.755 
347.717 
345.753 
347.229 
346.709 
346.57 
349.351 
349.393 
347.033 
353.413 
348.015 
350.29 
348.132 
350.853 
344.409 
347.248 
348.193 
346.608 
350.035 
348.481 
352.442 
349.209 
350.548 
348.975 
349.728 
350.937 
347.709 
355.973 
346.602 
348.64 
351.362 
349.805 
348.343 
349.104 
351.498 
350.537 
355.968 
351.574 
351.299 
351.011 
351.476 
348.504 
