ITEM: TIMESTEP
19700000
ITEM: NUMBER OF CELLS
100
ITEM: BOX BOUNDS ss rr pp
0 0.001
0 1e-05
-0.5 0.5
ITEM: CELLS f_temp1[*] 
342.067 
344.57 
341.827 
340.562 
340.096 
343.104 
341.785 
342.884 
341.518 
341.105 
340.085 
345.098 
346.333 
340.145 
344.618 
343.317 
343.987 
343.881 
344.966 
341.772 
345.982 
342.469 
344.358 
339.914 
348.317 
340.334 
344.065 
344.254 
342.203 
346.966 
345.693 
342.6 
347.066 
345.379 
344.365 
344.046 
345.4 
346.919 
346.343 
350.569 
350.287 
346.783 
343.366 
342.825 
343.858 
347.404 
347.06 
347.019 
347.505 
348.769 
345.329 
346.64 
346.072 
351.782 
348.011 
344.83 
351.924 
346.626 
348.359 
344.877 
346.526 
350.771 
351.72 
348.766 
350.388 
348.691 
351.176 
348.471 
351.895 
349.544 
352.841 
348.008 
347.996 
349.391 
349.744 
349.977 
353.662 
351.575 
349.798 
348.409 
351.941 
352.401 
351.607 
348.477 
348.043 
352.368 
352.391 
352.351 
351.786 
350.128 
354.415 
354.562 
349.393 
354.106 
352.262 
350.16 
354.771 
351.215 
352.804 
352.4 
