ITEM: TIMESTEP
278200000
ITEM: NUMBER OF CELLS
100
ITEM: BOX BOUNDS ss rr pp
0 0.001
0 1e-05
-0.5 0.5
ITEM: CELLS f_temp1[*] 
339.525 
336.642 
340.233 
339.928 
339.45 
339.779 
339.543 
343.28 
337.629 
338.211 
344.966 
339.857 
338.625 
344.277 
345.072 
341.636 
343.028 
341.18 
343.011 
343.641 
344.662 
344.621 
341.663 
343.412 
339.205 
339.812 
342.166 
343.636 
341.805 
345.095 
345.355 
347.789 
342.83 
346.816 
346.764 
345.32 
348.471 
343.445 
346.3 
344.963 
346.301 
346.31 
344.324 
348.346 
346.829 
344.079 
348.837 
347.027 
346.011 
345.206 
347.244 
349.66 
347.286 
347.681 
347.149 
346.01 
347.864 
344.474 
350.162 
350.631 
349.196 
350.702 
347.201 
349.911 
349.469 
348.638 
350.504 
350.162 
350.004 
351.969 
349.357 
352.992 
348.709 
347.33 
351.398 
351.138 
349.258 
353.526 
350.582 
349.9 
353.077 
349.419 
351.942 
347.972 
357.183 
350.312 
350.548 
352.737 
350.721 
353.804 
355.55 
350.994 
353.12 
349.463 
352.373 
350.929 
355.984 
353.62 
352.835 
356.184 
