ITEM: TIMESTEP
307400000
ITEM: NUMBER OF CELLS
100
ITEM: BOX BOUNDS ss rr pp
0 0.001
0 1e-05
-0.5 0.5
ITEM: CELLS f_temp1[*] 
339.711 
340.246 
339.416 
341.143 
340.522 
342.171 
343.413 
342.661 
341.131 
341.59 
341.017 
342.7 
341.907 
343.646 
341.417 
340.667 
344.215 
342.512 
338.445 
344.179 
342.712 
341.666 
343.965 
341.589 
343.713 
346.41 
341.902 
344.889 
345.462 
343.281 
342.776 
341.996 
344.41 
343.092 
346.791 
343.517 
344.354 
345.808 
346.845 
344.742 
347.684 
342.885 
347.404 
344.665 
344.998 
347.038 
347.774 
344.15 
343.661 
345.219 
348.056 
342.554 
349.644 
349.28 
350.095 
347.493 
344.479 
347.155 
350.445 
348.3 
348.964 
345.555 
349.451 
345.304 
346.704 
349.537 
348.026 
348.52 
345.223 
349.713 
349.623 
347.708 
350.025 
346.178 
348.774 
348.712 
352.335 
351.314 
348.341 
349.47 
346.842 
348.259 
348.116 
347.688 
350.809 
346.903 
352.038 
351.464 
349.664 
350.108 
352.643 
354.864 
352.344 
355.098 
352.72 
353.252 
355.374 
352.773 
352.318 
354.041 
