ITEM: TIMESTEP
240500000
ITEM: NUMBER OF CELLS
100
ITEM: BOX BOUNDS ss rr pp
0 0.001
0 1e-05
-0.5 0.5
ITEM: CELLS f_temp1[*] 
340.252 
335.765 
340.758 
342.059 
339.093 
344.38 
340.759 
343.879 
345.138 
341.116 
344.855 
342.134 
337.974 
337.664 
343.869 
342.156 
340.66 
345.66 
344.516 
341.938 
345.41 
347.722 
344.362 
343.144 
346.361 
346.485 
342.464 
344.612 
343.915 
342.724 
350.369 
345.116 
347.06 
344.567 
347.266 
342.921 
343.406 
345.905 
344.625 
347.396 
345.587 
346.325 
342.959 
345.9 
345.475 
344.251 
347.242 
345.41 
348.002 
346.053 
344.568 
346.89 
349.308 
346.594 
340.333 
347.775 
347.567 
345.909 
347.469 
347.994 
347.831 
346.925 
350.079 
352.487 
345.492 
349.639 
351.303 
349.282 
352.287 
348.675 
350.552 
348.633 
348.485 
352.516 
350.857 
348.762 
346.449 
351.481 
349.448 
353.765 
348.286 
350.531 
354.358 
351.473 
352.31 
350.723 
351.306 
347.005 
351.04 
352.041 
350.448 
352.124 
350.706 
354.163 
351.381 
352.196 
353.539 
356.289 
353.684 
354.003 
