ITEM: TIMESTEP
344600000
ITEM: NUMBER OF CELLS
100
ITEM: BOX BOUNDS ss rr pp
0 0.001
0 1e-05
-0.5 0.5
ITEM: CELLS f_temp1[*] 
343.983 
338.447 
339.696 
338.238 
339.707 
345.12 
341.739 
343.185 
343.234 
338.976 
342.226 
341.484 
343.474 
343.857 
343.05 
338.878 
344.509 
342.073 
348.458 
341.054 
342.361 
340.423 
345.468 
341.9 
343.014 
343.431 
344.056 
343.523 
344.035 
344.87 
348.476 
344.813 
343.655 
344.681 
346.741 
343.258 
347.929 
345.006 
344.594 
344.464 
348.369 
341.646 
345.457 
344.679 
348.403 
348.371 
346.626 
348.951 
345.869 
346.582 
347.377 
347.012 
349.16 
348.315 
345.874 
349.336 
346.347 
348.492 
352.111 
345.781 
348.682 
349.155 
347.764 
349.868 
350.053 
350.785 
347.475 
348.134 
346.604 
349.451 
355.123 
349.95 
345.054 
350.223 
353.243 
348.121 
346.715 
351.636 
349.923 
353.088 
349.548 
352.491 
349.785 
352.414 
355.718 
353.717 
346.845 
351.347 
349.516 
349.048 
349.43 
351.653 
350.408 
357.327 
348.449 
352.581 
352.686 
354.276 
354.984 
357.469 
