ITEM: TIMESTEP
710400000
ITEM: NUMBER OF CELLS
100
ITEM: BOX BOUNDS ss rr pp
0 0.001
0 1e-05
-0.5 0.5
ITEM: CELLS f_temp1[*] 
337.656 
340.032 
340.264 
339.065 
339.737 
340.325 
340.364 
339.327 
340.45 
342.307 
341.49 
342.815 
341.627 
345.451 
341.509 
344.301 
342.587 
342.537 
345.046 
343.8 
344.499 
344.492 
342.698 
344.774 
346.943 
343.798 
346.891 
343.161 
345.421 
343.166 
343.251 
342.977 
346.265 
346.205 
348.54 
342.159 
346.803 
344.672 
348.506 
348.219 
346.166 
344.798 
344.082 
344.563 
346.05 
349.408 
347.836 
350.53 
345.998 
346.622 
348.591 
346.26 
347.38 
348.262 
350.958 
348.342 
348.037 
348.647 
349.821 
349.021 
346.895 
343.974 
348.187 
347.149 
347.505 
347.176 
348.611 
348.096 
345.709 
345.571 
343.051 
345.832 
350.701 
350.312 
346.042 
347.712 
348.436 
348.562 
350.3 
348.565 
348.834 
348.741 
348.208 
355.588 
351.411 
350.799 
351.958 
352.832 
353.555 
352.805 
348.778 
351.022 
355.513 
352.328 
352.849 
354.627 
349.472 
351.753 
356.24 
355.205 
