ITEM: TIMESTEP
72400000
ITEM: NUMBER OF CELLS
100
ITEM: BOX BOUNDS ss rr pp
0 0.001
0 1e-05
-0.5 0.5
ITEM: CELLS f_temp1[*] 
341.642 
340.459 
341.861 
340.898 
337.766 
341.752 
342.741 
337.972 
344.728 
336.032 
341.192 
340.434 
341.368 
342.716 
343.237 
343.475 
344.332 
341.76 
343.851 
341.758 
342.372 
342.618 
345.143 
344.138 
341.283 
343.299 
342.726 
341.891 
343.704 
344.154 
344.912 
344.633 
344.78 
342.106 
342.334 
344.304 
342.63 
346.913 
346.113 
346.762 
344.613 
344.443 
350.123 
344.748 
345.84 
346.175 
348.159 
344.563 
345.814 
346.282 
345.318 
346.928 
347.07 
346.752 
343.254 
344.518 
346.162 
345.448 
343.404 
344.678 
349.14 
346.971 
349.727 
345.864 
345.861 
348.317 
348.945 
349.443 
348.4 
351.339 
347.86 
350.881 
349.344 
349.946 
347.802 
352.439 
350.73 
347.888 
345.666 
349.726 
348.582 
351.965 
350.241 
350.5 
347.982 
352.615 
351.867 
349.893 
353.988 
353.707 
353.307 
351.003 
351.689 
349.693 
352.621 
351.37 
353.183 
351.161 
350.229 
355.036 
