ITEM: TIMESTEP
288500000
ITEM: NUMBER OF CELLS
100
ITEM: BOX BOUNDS ss rr pp
0 0.001
0 1e-05
-0.5 0.5
ITEM: CELLS f_temp1[*] 
343.97 
340.496 
339.489 
339.988 
343.855 
343.337 
341.147 
340.759 
343.966 
342.172 
341.377 
341.611 
340.882 
342.702 
341.113 
345.026 
341.117 
341.129 
341.867 
344.638 
343.469 
341.885 
342.205 
344.475 
342.973 
346.88 
342.125 
342.364 
344.925 
344.692 
347.73 
345.395 
340.546 
343.566 
343.164 
344.739 
343.517 
344.477 
345.232 
345.376 
343.389 
343.104 
346.989 
342.413 
349.333 
349.201 
342.614 
341.265 
346.228 
348.642 
348.337 
345.323 
349.64 
344.498 
343.139 
345.439 
349.171 
344.439 
351.727 
343.422 
346.388 
348.547 
345.583 
345.517 
346.506 
347.172 
348.737 
347.071 
347.62 
346.739 
351.189 
353.049 
351.422 
349.958 
349.55 
346.421 
352.109 
348.541 
348.29 
346.46 
350.055 
351.04 
350.316 
352.351 
348.631 
352.374 
355.876 
350.73 
351.36 
355.661 
350.792 
348.482 
354.436 
356.222 
353.816 
352.765 
353.504 
352.886 
350.928 
352.986 
