ITEM: TIMESTEP
543300000
ITEM: NUMBER OF CELLS
100
ITEM: BOX BOUNDS ss rr pp
0 0.001
0 1e-05
-0.5 0.5
ITEM: CELLS f_temp1[*] 
337.933 
340.965 
341.372 
346.773 
341.233 
341.819 
342.772 
342.664 
339.462 
341.797 
338.181 
341.79 
342.386 
345.075 
344.421 
343.492 
341.172 
341.54 
341.249 
338.533 
343.401 
342.76 
343.619 
341.639 
341.98 
343.869 
341.719 
343.218 
338.375 
345.373 
342.272 
343.988 
340.406 
345.295 
340.175 
346.116 
347.6 
344.117 
345.276 
345.975 
347.476 
341.411 
344.506 
344.194 
344.039 
344.701 
347.088 
346.221 
345.31 
347.895 
346.789 
349.989 
347.12 
349.166 
344.62 
350.129 
345.885 
344.72 
347.359 
345.152 
353.54 
343.752 
350.502 
347.073 
347.962 
347.313 
352.898 
352.1 
346.222 
349.426 
351.62 
350.283 
350.689 
345.004 
351.82 
351.137 
349.233 
347.482 
353.371 
353.966 
349.896 
349.049 
345.176 
352.413 
352.297 
351.782 
349.742 
350.966 
348.288 
354.153 
351.059 
352.39 
350.715 
353.05 
355.495 
352.359 
351.535 
350.993 
353.739 
352.762 
