ITEM: TIMESTEP
603500000
ITEM: NUMBER OF CELLS
100
ITEM: BOX BOUNDS ss rr pp
0 0.001
0 1e-05
-0.5 0.5
ITEM: CELLS f_temp1[*] 
342.141 
338.449 
341.183 
339.247 
336.655 
339.421 
338.989 
339.09 
344.534 
343.722 
341.834 
341.736 
341.656 
341.227 
347.28 
343.152 
338.322 
343.515 
342.858 
342.978 
343.114 
344.147 
341.07 
343.473 
342.039 
340.719 
344.261 
348.915 
341.584 
345.92 
349.705 
342.717 
346.438 
345.17 
346.771 
343.497 
348.2 
345.802 
341.697 
344.962 
347.344 
349.307 
341.11 
350.075 
341.777 
348.479 
349.32 
345.151 
348.887 
347.012 
341.767 
345.276 
348.509 
344.976 
348.941 
346.198 
349.209 
346.157 
349.649 
345.596 
345.433 
348.338 
348.862 
347.65 
344.925 
347.187 
347.898 
350.492 
347.422 
346.207 
350.907 
347.721 
348.597 
350.296 
351.398 
349.203 
350.469 
352.078 
354.221 
349.379 
350.719 
352.639 
349.978 
349.445 
347.397 
350.597 
348.996 
351.327 
348.596 
352.03 
352.313 
352.622 
352.973 
351.598 
353.885 
353.906 
350.718 
350.523 
351.235 
352.228 
