ITEM: TIMESTEP
481900000
ITEM: NUMBER OF CELLS
100
ITEM: BOX BOUNDS ss rr pp
0 0.001
0 1e-05
-0.5 0.5
ITEM: CELLS f_temp1[*] 
343.975 
335.508 
343.459 
339.546 
344.158 
338.793 
338.313 
336.853 
341.896 
341.839 
342.033 
343.893 
342.2 
340.254 
345.091 
341.958 
342.842 
341.435 
341.067 
341.923 
346.795 
346.877 
344.091 
346.502 
343.346 
345.456 
344.872 
343.332 
345.825 
350.677 
343.232 
345.197 
343.1 
346.126 
345.273 
345.42 
344.396 
345.598 
346.075 
347.737 
343.69 
344.636 
350.246 
342.863 
347.022 
345.367 
346.966 
347.77 
347.312 
346.287 
343.983 
345.047 
346.446 
347.573 
346.655 
351.49 
347.144 
350.358 
350.267 
348.991 
348.446 
349.507 
348.567 
348.25 
351.589 
347.196 
346.003 
348.274 
348.784 
348.579 
350.04 
350.337 
345.585 
353.218 
349.009 
351.72 
352.425 
348.54 
352.09 
350.081 
352.732 
354.565 
351.323 
353.386 
351.505 
353.713 
352.579 
351.489 
350.639 
351.91 
353.185 
350.176 
353.969 
350.364 
352.112 
357.226 
354.288 
351.943 
354.602 
352.297 
