ITEM: TIMESTEP
311800000
ITEM: NUMBER OF CELLS
100
ITEM: BOX BOUNDS ss rr pp
0 0.001
0 1e-05
-0.5 0.5
ITEM: CELLS f_temp1[*] 
342.364 
339.105 
341.066 
342.621 
342.994 
342.217 
340.623 
341.784 
339.334 
339.626 
342.549 
345.507 
337.743 
342.565 
340.788 
341.241 
342.901 
345.94 
343.204 
340.46 
345.775 
338.763 
339.587 
341.342 
342.143 
347.334 
344.097 
344.71 
342.17 
344.384 
347.742 
345.01 
345.12 
344.09 
347.123 
349.074 
344.077 
344.542 
347.203 
346.115 
347.46 
347.284 
344.195 
343.396 
344.168 
345.43 
347.87 
348.646 
347.687 
348.59 
346.559 
351.048 
347.342 
348.212 
349.671 
349.493 
351.175 
346.357 
347.627 
349.622 
351.573 
346.643 
351.171 
348.81 
351.257 
347.323 
348.016 
349.46 
349.96 
348.594 
352.699 
350.727 
352.432 
352.473 
350.922 
352.485 
349.917 
348.342 
348.971 
348.633 
348.492 
352.032 
350.207 
347.05 
352.794 
356.735 
350.752 
350.6 
352.908 
350.635 
348.269 
353.164 
354.609 
350.517 
350.608 
354.744 
350.33 
351.829 
352.383 
352.749 
