ITEM: TIMESTEP
349800000
ITEM: NUMBER OF CELLS
100
ITEM: BOX BOUNDS ss rr pp
0 0.001
0 1e-05
-0.5 0.5
ITEM: CELLS f_temp1[*] 
343.843 
339.548 
340.538 
338.333 
340.985 
341.096 
343.878 
339.865 
340.437 
340.691 
345.919 
341.82 
341.735 
337.594 
343.044 
340.431 
345.595 
343.929 
342.621 
347.002 
340.425 
340.854 
347.32 
344.653 
345.481 
344.897 
345.22 
343.48 
346.168 
342.904 
343.73 
345.09 
343.192 
342.683 
343.836 
344.298 
346.141 
342.864 
346.44 
342.483 
345.522 
343.395 
345.598 
346.534 
341.587 
342.032 
349.251 
347.787 
343.85 
347.011 
347.165 
347.706 
346.253 
348.996 
345.927 
346.997 
347.923 
345.591 
346.872 
348.81 
349.633 
352.143 
347.545 
346.089 
349.611 
346.455 
347.611 
349.501 
348.543 
348.38 
350.907 
348.745 
349.938 
350.118 
348.412 
352.106 
350.576 
352.756 
353.385 
349.552 
348.557 
351.059 
346.782 
352.084 
352.002 
351.983 
352.933 
353.842 
352.151 
352.801 
353.829 
345.617 
351.537 
352.814 
356.854 
353.502 
352.41 
353.046 
352.684 
354.521 
