ITEM: TIMESTEP
140700000
ITEM: NUMBER OF CELLS
100
ITEM: BOX BOUNDS ss rr pp
0 0.001
0 1e-05
-0.5 0.5
ITEM: CELLS f_temp1[*] 
337.4 
341.17 
345.4 
338.358 
338.599 
340.11 
342.875 
342.451 
342.578 
344.701 
348.106 
344.312 
343.464 
346.932 
341.057 
345.392 
342.441 
343.817 
344.142 
341.212 
342.646 
341.831 
344.745 
345.848 
342.816 
343.708 
349.59 
346.137 
346.187 
341.103 
343.215 
342.938 
344.672 
339.208 
348.022 
346.806 
343.865 
347.383 
346.871 
345.071 
345.172 
346.691 
345.632 
348.277 
345.538 
348.519 
345.252 
346.143 
345.904 
347.982 
344.774 
346.782 
349.196 
344.723 
345.892 
346.11 
349.508 
351.286 
349.092 
350.18 
347.959 
347.43 
348.659 
351.191 
350.855 
347.82 
349.717 
350.185 
350.342 
347.834 
347.151 
349.44 
348.762 
351.473 
352.563 
347.335 
349.112 
350.136 
352.997 
353.248 
345.693 
351.488 
349.861 
351.967 
348.225 
350.086 
351.425 
352.056 
348.329 
357.711 
349.648 
351.915 
353.417 
353.771 
353.925 
352.863 
351.086 
353.256 
351.48 
355.474 
