ITEM: TIMESTEP
648200000
ITEM: NUMBER OF CELLS
100
ITEM: BOX BOUNDS ss rr pp
0 0.001
0 1e-05
-0.5 0.5
ITEM: CELLS f_temp1[*] 
340.483 
340.503 
338.846 
338.885 
338.984 
340.438 
341.917 
342.507 
342.102 
337.722 
339.644 
343.63 
340.136 
342.937 
338.077 
340.536 
340.648 
343.244 
340.147 
341.176 
337.768 
342.597 
338.579 
341.141 
340.258 
340.581 
343.805 
345.205 
343.028 
342.604 
341.967 
343.265 
342.829 
343.095 
343.914 
345.216 
344.922 
345.667 
343.708 
341.35 
346.007 
345.182 
342.868 
344.292 
347.799 
344.609 
343.043 
345.505 
347.234 
346.237 
348.649 
345.697 
344.832 
347.393 
347.932 
347.893 
341.563 
347.148 
348.672 
347.778 
349.332 
349.275 
350.876 
348.07 
350.177 
342.905 
348.501 
350.752 
346.044 
346.236 
347.333 
344.891 
349.883 
347.992 
345.883 
345.939 
347.895 
347.645 
344.506 
349.21 
348.724 
345.244 
350.225 
347.819 
347.145 
346.919 
348.85 
352.201 
348.176 
351.093 
349.636 
350.407 
353.309 
350.719 
348.127 
353.486 
352.169 
350.9 
347.285 
352.475 
