ITEM: TIMESTEP
313600000
ITEM: NUMBER OF CELLS
100
ITEM: BOX BOUNDS ss rr pp
0 0.001
0 1e-05
-0.5 0.5
ITEM: CELLS f_temp1[*] 
342.852 
340.258 
344.036 
340.312 
342.63 
342.247 
342.922 
340.245 
342.261 
341.197 
343.738 
343.492 
339.536 
341.669 
345.317 
344.101 
342.097 
348.937 
340.268 
344.596 
342.89 
340.995 
344.906 
347.022 
345.119 
342.208 
341.75 
344.819 
346.901 
342.09 
343.777 
343.38 
345.926 
345.842 
346.134 
345.489 
342.098 
345.097 
342.786 
346.131 
343.775 
346.415 
341.629 
347.441 
345.229 
347.064 
347.045 
349.211 
348.335 
350.577 
346.825 
347.272 
346.706 
349.657 
349.217 
347.81 
351.102 
347.961 
350.692 
348.901 
348.043 
350.731 
349.999 
350.339 
352.841 
348.738 
349.428 
349.288 
353.876 
348.648 
354.746 
351.603 
349.062 
350.381 
353.002 
351.003 
351.588 
351.481 
350.87 
351.008 
348.787 
351.198 
352.958 
360.488 
352.551 
351.139 
349.768 
353.686 
347.7 
353.499 
353.201 
355.186 
350.341 
353.035 
354.871 
353.403 
353.205 
351.017 
355.69 
356.531 
