ITEM: TIMESTEP
702700000
ITEM: NUMBER OF CELLS
100
ITEM: BOX BOUNDS ss rr pp
0 0.001
0 1e-05
-0.5 0.5
ITEM: CELLS f_temp1[*] 
338.428 
340.126 
339.91 
337.493 
339.053 
340.309 
335.603 
339.047 
338.152 
341.109 
334.758 
338.629 
338.22 
337.48 
339.252 
341.379 
337.678 
338.688 
341.682 
343.6 
338.329 
340.735 
340.574 
340.182 
342.535 
340.068 
343.058 
343.314 
339.651 
342.315 
338.955 
345.275 
343.231 
342.449 
345.358 
347.239 
346.821 
341.734 
343.587 
342.685 
344.495 
342.708 
347.055 
342.036 
344.904 
343.477 
341.699 
343.27 
345.058 
344.715 
345.158 
344.467 
347.05 
344.244 
344.69 
346.185 
346.613 
347.846 
343.833 
344.961 
349.143 
345.545 
344.713 
348.838 
349.048 
345.451 
348.891 
349.923 
346.834 
351.516 
345.88 
346.249 
347.795 
347.69 
343.344 
348.186 
348.375 
349.73 
350.451 
351.156 
348.569 
345.198 
349.477 
350.809 
348.698 
353.586 
350.488 
351.141 
350.355 
351.256 
349.634 
352.568 
352.28 
348.904 
350.601 
351.225 
357.365 
353.841 
352.555 
354.699 
