ITEM: TIMESTEP
641100000
ITEM: NUMBER OF CELLS
100
ITEM: BOX BOUNDS ss rr pp
0 0.001
0 1e-05
-0.5 0.5
ITEM: CELLS f_temp1[*] 
340.966 
338.094 
341.951 
340.842 
339.825 
338.452 
340.122 
337.887 
340.194 
338.917 
339.3 
339.774 
342.354 
339.505 
339.238 
341.351 
343.43 
341.255 
340.432 
343.354 
338.562 
340.484 
345.072 
343.923 
348.684 
343.722 
345.184 
344.417 
344.722 
341.405 
345.391 
346.057 
346.105 
341.282 
344.612 
346.355 
344.622 
344.346 
344.829 
340.423 
347.716 
346.07 
343.398 
343.982 
344.625 
345.731 
348.473 
346.57 
344.956 
343.677 
346.313 
346.176 
343.728 
349.284 
347.283 
348.062 
343.897 
345.664 
347.493 
347.719 
345.498 
344.238 
345.821 
347.402 
348.746 
347.021 
347.641 
348.547 
347.358 
350.195 
347.66 
350.13 
352.601 
351.921 
351.463 
350.277 
349.445 
352.845 
347.817 
349.99 
351.364 
354.388 
351.125 
348.161 
350.381 
352.388 
351.563 
344.876 
350.674 
352.449 
349.627 
349.666 
356.104 
353.571 
351.228 
353.063 
352.46 
349.648 
350.478 
350.947 
