ITEM: TIMESTEP
370900000
ITEM: NUMBER OF CELLS
100
ITEM: BOX BOUNDS ss rr pp
0 0.001
0 1e-05
-0.5 0.5
ITEM: CELLS f_temp1[*] 
341.267 
338.144 
337.648 
341.763 
341.606 
341.217 
340.659 
339.819 
340.261 
339.577 
339.804 
342.549 
344.139 
345.236 
341.083 
341.34 
344.285 
338.682 
341.973 
340.764 
348.726 
342.985 
346.854 
344.218 
343.348 
342.209 
347.118 
346.269 
342.102 
340.037 
349.467 
347.257 
338.302 
347.794 
343.539 
344.287 
340.002 
343.051 
345.317 
347.9 
346.301 
345.403 
345.752 
351.223 
346.108 
346.647 
344.255 
346.915 
347.43 
346.151 
346.988 
343.335 
347.039 
345.287 
347.612 
347.403 
346.942 
343.301 
346.107 
342.749 
347.721 
350.738 
347.928 
346.066 
344.847 
348.683 
349.431 
349.133 
350.262 
349.869 
351.481 
348.486 
349.109 
347.431 
351.536 
351.95 
353.484 
348.906 
351.263 
350.271 
350.962 
345.484 
350.565 
351.281 
349.474 
351.297 
347.966 
349.394 
355.696 
349.421 
350.721 
356.303 
354.867 
352.077 
356.696 
352.624 
354.674 
352.332 
353.074 
354.163 
