ITEM: TIMESTEP
605700000
ITEM: NUMBER OF CELLS
100
ITEM: BOX BOUNDS ss rr pp
0 0.001
0 1e-05
-0.5 0.5
ITEM: CELLS c_particles[1] 
19 
23 
26 
32 
24 
16 
21 
16 
21 
19 
22 
24 
19 
21 
16 
20 
19 
19 
19 
17 
24 
17 
17 
18 
17 
20 
16 
22 
20 
14 
25 
25 
24 
12 
15 
14 
15 
21 
18 
22 
26 
16 
26 
15 
23 
17 
19 
15 
22 
17 
24 
18 
21 
20 
24 
27 
9 
13 
19 
19 
19 
21 
10 
15 
25 
25 
24 
19 
16 
20 
20 
28 
26 
23 
19 
19 
22 
18 
19 
25 
22 
16 
21 
20 
19 
21 
19 
18 
20 
15 
25 
28 
22 
23 
19 
22 
21 
19 
19 
19 
