ITEM: TIMESTEP
208100000
ITEM: NUMBER OF CELLS
100
ITEM: BOX BOUNDS ss rr pp
0 0.001
0 1e-05
-0.5 0.5
ITEM: CELLS c_particles[1] 
23 
22 
17 
17 
27 
23 
20 
26 
16 
20 
18 
26 
15 
20 
16 
9 
20 
21 
12 
24 
15 
19 
28 
21 
21 
19 
19 
17 
17 
24 
18 
26 
26 
22 
16 
21 
23 
24 
17 
23 
19 
18 
14 
19 
28 
24 
18 
10 
21 
19 
13 
27 
22 
23 
20 
22 
25 
19 
13 
17 
27 
19 
15 
23 
22 
14 
11 
18 
21 
12 
28 
19 
20 
17 
18 
23 
22 
13 
17 
23 
19 
27 
18 
21 
30 
25 
18 
27 
22 
16 
15 
22 
18 
16 
30 
16 
18 
20 
14 
27 
