ITEM: TIMESTEP
150800000
ITEM: NUMBER OF CELLS
100
ITEM: BOX BOUNDS ss rr pp
0 0.001
0 1e-05
-0.5 0.5
ITEM: CELLS c_particles[1] 
13 
18 
17 
23 
17 
23 
17 
17 
17 
17 
20 
21 
25 
10 
19 
14 
24 
22 
28 
20 
27 
17 
19 
25 
18 
21 
24 
20 
21 
19 
33 
20 
17 
21 
31 
18 
18 
21 
19 
20 
26 
21 
22 
22 
13 
12 
21 
21 
16 
22 
21 
21 
29 
23 
19 
22 
25 
18 
25 
13 
24 
15 
19 
13 
18 
13 
22 
19 
23 
21 
27 
16 
18 
23 
19 
20 
24 
12 
21 
18 
31 
22 
24 
17 
17 
20 
23 
14 
21 
21 
24 
18 
13 
20 
19 
13 
16 
21 
17 
21 
