ITEM: TIMESTEP
77300000
ITEM: NUMBER OF CELLS
100
ITEM: BOX BOUNDS ss rr pp
0 0.001
0 1e-05
-0.5 0.5
ITEM: CELLS c_particles[1] 
24 
18 
19 
21 
20 
31 
22 
26 
13 
18 
19 
19 
20 
16 
18 
21 
27 
19 
14 
16 
19 
23 
15 
20 
17 
24 
23 
25 
23 
22 
21 
18 
18 
20 
23 
16 
19 
21 
10 
15 
22 
24 
17 
21 
8 
22 
17 
28 
18 
22 
23 
8 
17 
28 
21 
18 
14 
22 
18 
24 
22 
15 
20 
13 
19 
16 
20 
23 
23 
22 
27 
21 
24 
22 
20 
17 
33 
18 
28 
18 
24 
23 
17 
14 
13 
24 
18 
21 
21 
27 
16 
18 
17 
17 
27 
20 
25 
15 
20 
17 
