ITEM: TIMESTEP
7300000
ITEM: NUMBER OF CELLS
100
ITEM: BOX BOUNDS ss rr pp
0 0.001
0 1e-05
-0.5 0.5
ITEM: CELLS c_particles[1] 
14 
21 
17 
23 
26 
21 
21 
23 
13 
17 
16 
14 
22 
20 
20 
27 
25 
14 
20 
18 
22 
19 
17 
22 
16 
14 
16 
19 
25 
24 
18 
18 
21 
28 
18 
21 
20 
22 
24 
24 
15 
21 
20 
27 
18 
18 
14 
25 
13 
23 
14 
20 
24 
21 
19 
25 
27 
28 
19 
26 
14 
17 
14 
23 
27 
18 
19 
17 
22 
17 
24 
19 
22 
13 
12 
18 
25 
19 
17 
26 
20 
20 
13 
15 
20 
23 
24 
26 
26 
17 
22 
18 
23 
14 
18 
18 
16 
27 
19 
21 
