ITEM: TIMESTEP
126000000
ITEM: NUMBER OF CELLS
100
ITEM: BOX BOUNDS ss rr pp
0 0.001
0 1e-05
-0.5 0.5
ITEM: CELLS c_particles[1] 
26 
29 
19 
19 
22 
27 
19 
17 
21 
13 
17 
12 
13 
20 
19 
17 
19 
20 
20 
19 
20 
12 
17 
17 
20 
23 
18 
17 
15 
20 
21 
32 
17 
19 
26 
17 
18 
19 
20 
23 
25 
22 
24 
30 
18 
20 
25 
26 
18 
31 
20 
16 
21 
20 
16 
14 
21 
25 
12 
19 
29 
18 
11 
19 
18 
14 
22 
22 
20 
26 
15 
18 
19 
17 
18 
21 
18 
26 
18 
23 
17 
21 
18 
18 
12 
16 
17 
24 
18 
18 
20 
30 
20 
17 
14 
17 
25 
32 
26 
26 
