ITEM: TIMESTEP
4400000
ITEM: NUMBER OF CELLS
100
ITEM: BOX BOUNDS ss rr pp
0 0.001
0 1e-05
-0.5 0.5
ITEM: CELLS c_particles[1] 
34 
22 
19 
15 
24 
20 
24 
22 
18 
22 
22 
23 
21 
11 
27 
23 
22 
17 
9 
29 
19 
19 
14 
26 
17 
30 
19 
21 
18 
28 
24 
11 
20 
15 
26 
24 
16 
14 
22 
22 
17 
25 
24 
20 
16 
12 
13 
25 
21 
17 
26 
22 
21 
16 
20 
25 
23 
21 
18 
33 
11 
14 
13 
21 
22 
17 
11 
28 
30 
15 
20 
13 
13 
21 
22 
25 
16 
30 
18 
20 
17 
20 
10 
15 
18 
17 
22 
18 
20 
17 
16 
21 
23 
22 
21 
20 
11 
24 
21 
23 
