ITEM: TIMESTEP
45800000
ITEM: NUMBER OF CELLS
100
ITEM: BOX BOUNDS ss rr pp
0 0.001
0 1e-05
-0.5 0.5
ITEM: CELLS c_particles[1] 
24 
20 
28 
23 
17 
18 
22 
26 
22 
19 
21 
24 
13 
17 
23 
23 
29 
25 
24 
25 
23 
16 
22 
28 
21 
17 
20 
10 
14 
21 
20 
18 
32 
21 
19 
24 
19 
16 
29 
20 
23 
19 
16 
22 
17 
17 
16 
19 
19 
19 
18 
18 
17 
19 
20 
18 
18 
23 
15 
25 
22 
10 
24 
12 
23 
18 
18 
18 
22 
24 
18 
16 
13 
21 
14 
24 
14 
13 
25 
22 
20 
24 
18 
15 
24 
16 
24 
17 
20 
14 
27 
17 
23 
16 
18 
23 
22 
25 
18 
17 
