ITEM: TIMESTEP
701100000
ITEM: NUMBER OF CELLS
100
ITEM: BOX BOUNDS ss rr pp
0 0.001
0 1e-05
-0.5 0.5
ITEM: CELLS c_particles[1] 
20 
21 
20 
18 
23 
8 
10 
31 
25 
24 
13 
19 
18 
20 
18 
18 
18 
19 
26 
20 
19 
15 
18 
24 
22 
26 
17 
19 
30 
22 
24 
19 
15 
32 
16 
21 
18 
26 
17 
17 
22 
30 
22 
13 
26 
16 
26 
11 
15 
19 
16 
24 
19 
23 
23 
15 
19 
22 
24 
17 
24 
25 
16 
19 
18 
25 
15 
23 
18 
12 
17 
16 
19 
18 
21 
16 
23 
23 
25 
8 
17 
14 
28 
20 
14 
28 
14 
19 
25 
20 
20 
18 
20 
25 
17 
13 
35 
21 
21 
22 
