ITEM: TIMESTEP
568100000
ITEM: NUMBER OF CELLS
100
ITEM: BOX BOUNDS ss rr pp
0 0.001
0 1e-05
-0.5 0.5
ITEM: CELLS c_particles[1] 
23 
17 
15 
10 
20 
19 
27 
22 
25 
23 
17 
14 
22 
37 
26 
19 
22 
23 
20 
20 
17 
26 
20 
20 
25 
23 
21 
13 
23 
25 
25 
19 
15 
17 
16 
21 
27 
19 
13 
21 
24 
22 
26 
22 
15 
23 
13 
22 
18 
15 
17 
17 
15 
23 
28 
16 
14 
21 
16 
22 
32 
24 
12 
23 
21 
15 
10 
26 
13 
14 
19 
22 
14 
14 
17 
18 
20 
23 
10 
21 
21 
26 
18 
15 
22 
14 
28 
24 
25 
21 
18 
25 
19 
14 
29 
15 
15 
25 
23 
19 
