ITEM: TIMESTEP
151200000
ITEM: NUMBER OF CELLS
100
ITEM: BOX BOUNDS ss rr pp
0 0.001
0 1e-05
-0.5 0.5
ITEM: CELLS c_particles[1] 
19 
15 
23 
7 
20 
20 
8 
23 
22 
16 
24 
24 
21 
20 
15 
19 
16 
17 
21 
22 
21 
20 
14 
26 
23 
16 
22 
24 
29 
22 
16 
26 
17 
19 
17 
19 
20 
21 
18 
23 
16 
22 
16 
21 
24 
7 
24 
16 
24 
29 
22 
14 
24 
16 
24 
17 
18 
17 
27 
23 
23 
17 
17 
28 
15 
25 
13 
27 
17 
10 
25 
16 
29 
31 
21 
18 
20 
23 
17 
13 
19 
21 
29 
15 
19 
16 
20 
26 
20 
22 
18 
18 
20 
22 
21 
22 
22 
23 
19 
17 
