ITEM: TIMESTEP
238100000
ITEM: NUMBER OF CELLS
100
ITEM: BOX BOUNDS ss rr pp
0 0.001
0 1e-05
-0.5 0.5
ITEM: CELLS c_particles[1] 
21 
19 
16 
21 
23 
11 
16 
19 
18 
17 
21 
30 
20 
14 
21 
17 
19 
25 
22 
25 
24 
15 
21 
16 
24 
26 
22 
28 
24 
18 
28 
25 
24 
23 
17 
20 
20 
22 
19 
18 
31 
22 
19 
27 
18 
17 
16 
20 
20 
9 
22 
19 
18 
20 
24 
20 
17 
18 
17 
16 
30 
16 
24 
19 
14 
13 
17 
17 
21 
17 
22 
16 
18 
26 
18 
18 
21 
12 
18 
21 
19 
21 
32 
33 
17 
18 
19 
13 
28 
19 
19 
21 
18 
20 
23 
13 
17 
13 
19 
21 
