ITEM: TIMESTEP
93000000
ITEM: NUMBER OF CELLS
100
ITEM: BOX BOUNDS ss rr pp
0 0.001
0 1e-05
-0.5 0.5
ITEM: CELLS c_particles[1] 
20 
28 
13 
19 
18 
25 
18 
16 
18 
18 
17 
24 
14 
16 
24 
15 
22 
14 
14 
36 
26 
17 
14 
26 
23 
19 
17 
19 
18 
26 
27 
25 
19 
18 
16 
20 
14 
17 
20 
17 
25 
19 
17 
24 
21 
31 
22 
21 
25 
19 
23 
23 
15 
16 
18 
21 
19 
23 
22 
17 
16 
23 
19 
19 
18 
28 
24 
22 
17 
21 
22 
19 
18 
20 
24 
20 
17 
19 
25 
16 
19 
19 
14 
18 
25 
11 
17 
15 
29 
24 
18 
19 
14 
19 
24 
17 
14 
27 
18 
24 
