ITEM: TIMESTEP
682200000
ITEM: NUMBER OF CELLS
100
ITEM: BOX BOUNDS ss rr pp
0 0.001
0 1e-05
-0.5 0.5
ITEM: CELLS c_particles[1] 
22 
23 
21 
17 
15 
21 
24 
14 
23 
22 
20 
16 
20 
20 
16 
22 
15 
18 
28 
21 
26 
26 
17 
15 
16 
21 
18 
16 
21 
14 
18 
15 
15 
27 
24 
22 
15 
22 
22 
24 
22 
21 
27 
15 
17 
24 
19 
23 
18 
23 
27 
19 
19 
19 
18 
10 
27 
12 
22 
31 
23 
16 
18 
17 
21 
26 
12 
16 
21 
21 
24 
26 
20 
20 
17 
24 
16 
21 
25 
18 
24 
13 
26 
20 
22 
19 
27 
17 
18 
20 
20 
22 
13 
15 
18 
24 
20 
18 
24 
13 
