ITEM: TIMESTEP
492100000
ITEM: NUMBER OF CELLS
100
ITEM: BOX BOUNDS ss rr pp
0 0.001
0 1e-05
-0.5 0.5
ITEM: CELLS c_particles[1] 
29 
16 
11 
27 
24 
15 
27 
15 
22 
19 
18 
21 
23 
17 
17 
23 
16 
31 
24 
27 
23 
26 
23 
19 
18 
26 
25 
19 
20 
21 
13 
15 
23 
21 
20 
17 
18 
21 
21 
19 
12 
18 
19 
25 
11 
17 
14 
15 
18 
28 
24 
17 
22 
9 
19 
32 
20 
18 
19 
14 
25 
23 
14 
27 
16 
17 
18 
24 
18 
20 
24 
18 
24 
20 
28 
15 
14 
21 
12 
26 
21 
18 
27 
18 
21 
19 
17 
22 
23 
17 
21 
16 
19 
21 
20 
16 
23 
16 
21 
19 
