ITEM: TIMESTEP
212700000
ITEM: NUMBER OF CELLS
100
ITEM: BOX BOUNDS ss rr pp
0 0.001
0 1e-05
-0.5 0.5
ITEM: CELLS c_particles[1] 
16 
22 
19 
25 
25 
17 
18 
20 
18 
30 
30 
26 
22 
19 
26 
21 
15 
20 
19 
15 
18 
17 
16 
16 
22 
24 
25 
24 
20 
27 
21 
15 
18 
18 
14 
20 
15 
20 
17 
19 
12 
28 
24 
16 
18 
18 
23 
18 
25 
31 
16 
14 
24 
27 
22 
23 
24 
23 
18 
21 
23 
21 
19 
19 
15 
23 
22 
17 
24 
17 
23 
20 
16 
19 
22 
17 
15 
18 
19 
10 
23 
14 
21 
21 
21 
20 
16 
21 
15 
16 
20 
24 
21 
15 
23 
21 
19 
17 
19 
20 
