ITEM: TIMESTEP
137100000
ITEM: NUMBER OF CELLS
100
ITEM: BOX BOUNDS ss rr pp
0 0.001
0 1e-05
-0.5 0.5
ITEM: CELLS c_particles[1] 
19 
21 
25 
15 
19 
27 
16 
20 
19 
23 
20 
21 
27 
22 
17 
16 
17 
20 
20 
22 
15 
16 
24 
15 
12 
16 
15 
18 
18 
17 
18 
17 
13 
13 
16 
14 
20 
16 
18 
15 
31 
25 
17 
18 
25 
19 
24 
18 
25 
16 
15 
25 
19 
18 
24 
24 
16 
10 
19 
27 
21 
15 
31 
19 
20 
12 
29 
30 
15 
17 
24 
31 
11 
22 
14 
20 
29 
23 
17 
24 
27 
23 
27 
21 
21 
17 
12 
28 
15 
21 
21 
26 
18 
9 
16 
24 
33 
22 
25 
23 
