ITEM: TIMESTEP
673300000
ITEM: NUMBER OF CELLS
100
ITEM: BOX BOUNDS ss rr pp
0 0.001
0 1e-05
-0.5 0.5
ITEM: CELLS c_particles[1] 
19 
20 
22 
19 
22 
15 
26 
28 
25 
17 
20 
13 
22 
18 
17 
19 
20 
19 
18 
20 
15 
21 
25 
20 
27 
31 
14 
21 
17 
24 
24 
18 
18 
16 
24 
23 
24 
16 
16 
22 
11 
26 
16 
16 
27 
29 
20 
20 
20 
19 
19 
15 
14 
19 
23 
22 
16 
26 
13 
21 
17 
18 
25 
13 
29 
22 
35 
24 
20 
15 
20 
18 
22 
27 
17 
20 
20 
11 
25 
15 
23 
22 
24 
17 
20 
16 
27 
20 
20 
25 
12 
19 
21 
19 
17 
16 
15 
16 
18 
13 
