ITEM: TIMESTEP
301200000
ITEM: NUMBER OF CELLS
100
ITEM: BOX BOUNDS ss rr pp
0 0.001
0 1e-05
-0.5 0.5
ITEM: CELLS c_particles[1] 
22 
17 
27 
18 
21 
29 
21 
20 
19 
19 
21 
26 
18 
18 
20 
16 
19 
14 
21 
10 
22 
26 
23 
24 
28 
17 
19 
22 
17 
11 
25 
23 
18 
19 
20 
21 
25 
21 
14 
16 
25 
19 
21 
25 
25 
22 
18 
23 
17 
20 
18 
23 
18 
19 
24 
15 
12 
21 
9 
17 
18 
23 
13 
23 
29 
14 
14 
19 
19 
15 
23 
20 
26 
20 
28 
28 
18 
21 
21 
18 
23 
17 
15 
22 
20 
19 
24 
15 
23 
25 
18 
29 
26 
9 
24 
17 
20 
11 
17 
18 
