ITEM: TIMESTEP
140800000
ITEM: NUMBER OF CELLS
100
ITEM: BOX BOUNDS ss rr pp
0 0.001
0 1e-05
-0.5 0.5
ITEM: CELLS c_particles[1] 
32 
23 
16 
17 
19 
18 
17 
17 
21 
28 
18 
18 
20 
23 
22 
21 
23 
17 
21 
25 
13 
19 
18 
21 
20 
17 
20 
22 
22 
14 
18 
21 
19 
20 
21 
19 
17 
28 
15 
20 
19 
21 
16 
22 
15 
23 
15 
17 
23 
27 
19 
22 
24 
22 
21 
18 
25 
29 
20 
18 
26 
13 
24 
23 
15 
24 
17 
23 
17 
21 
27 
30 
23 
15 
23 
15 
22 
13 
23 
28 
16 
18 
18 
25 
19 
14 
13 
22 
15 
22 
19 
18 
20 
9 
16 
16 
17 
27 
15 
23 
