ITEM: TIMESTEP
23100000
ITEM: NUMBER OF CELLS
100
ITEM: BOX BOUNDS ss rr pp
0 0.001
0 1e-05
-0.5 0.5
ITEM: CELLS c_particles[1] 
20 
21 
18 
14 
12 
22 
25 
21 
20 
13 
22 
29 
15 
15 
24 
24 
13 
14 
18 
32 
21 
24 
16 
20 
18 
21 
19 
27 
20 
26 
26 
26 
21 
21 
26 
19 
16 
27 
24 
23 
24 
20 
16 
28 
23 
26 
26 
14 
19 
18 
19 
19 
17 
13 
12 
17 
25 
30 
13 
22 
20 
19 
18 
12 
12 
21 
17 
28 
17 
19 
17 
26 
22 
19 
18 
22 
17 
27 
22 
15 
22 
19 
14 
21 
21 
18 
11 
21 
22 
22 
21 
15 
18 
19 
21 
17 
16 
26 
16 
18 
