ITEM: TIMESTEP
520200000
ITEM: NUMBER OF CELLS
100
ITEM: BOX BOUNDS ss rr pp
0 0.001
0 1e-05
-0.5 0.5
ITEM: CELLS c_particles[1] 
22 
18 
24 
22 
17 
20 
14 
20 
19 
18 
15 
21 
24 
20 
23 
22 
12 
18 
27 
22 
29 
20 
13 
13 
20 
15 
20 
20 
19 
15 
21 
20 
15 
13 
23 
22 
11 
24 
23 
23 
16 
15 
26 
22 
12 
23 
12 
19 
33 
19 
23 
22 
20 
19 
20 
22 
24 
22 
25 
27 
18 
22 
17 
15 
22 
24 
21 
16 
27 
13 
16 
26 
20 
18 
22 
21 
15 
21 
19 
22 
16 
17 
21 
20 
16 
18 
22 
17 
23 
20 
23 
20 
19 
33 
14 
22 
23 
21 
20 
22 
