ITEM: TIMESTEP
612600000
ITEM: NUMBER OF CELLS
100
ITEM: BOX BOUNDS ss rr pp
0 0.001
0 1e-05
-0.5 0.5
ITEM: CELLS c_particles[1] 
23 
12 
26 
24 
22 
9 
17 
19 
18 
13 
20 
16 
9 
17 
22 
24 
19 
22 
19 
27 
13 
17 
21 
22 
23 
14 
19 
23 
19 
16 
25 
28 
18 
21 
18 
18 
20 
24 
19 
22 
14 
17 
21 
23 
25 
19 
25 
24 
17 
21 
23 
17 
25 
20 
26 
23 
18 
21 
21 
24 
16 
22 
19 
22 
23 
15 
13 
25 
23 
20 
20 
25 
20 
28 
18 
17 
15 
18 
21 
24 
12 
25 
19 
18 
18 
21 
25 
16 
19 
24 
18 
21 
24 
17 
22 
15 
21 
22 
26 
11 
