ITEM: TIMESTEP
630500000
ITEM: NUMBER OF CELLS
100
ITEM: BOX BOUNDS ss rr pp
0 0.001
0 1e-05
-0.5 0.5
ITEM: CELLS c_particles[1] 
20 
24 
25 
29 
26 
23 
21 
20 
17 
23 
20 
14 
28 
20 
17 
22 
20 
21 
25 
13 
17 
20 
20 
22 
14 
18 
26 
23 
27 
17 
20 
22 
23 
23 
33 
30 
21 
15 
17 
18 
13 
28 
11 
19 
25 
17 
16 
18 
19 
17 
14 
10 
19 
10 
18 
21 
16 
24 
27 
16 
25 
23 
18 
17 
33 
27 
19 
10 
22 
18 
19 
23 
22 
22 
12 
21 
15 
21 
22 
20 
14 
18 
20 
25 
21 
17 
21 
20 
20 
19 
25 
19 
15 
18 
18 
12 
15 
21 
27 
14 
