ITEM: TIMESTEP
405400000
ITEM: NUMBER OF CELLS
100
ITEM: BOX BOUNDS ss rr pp
0 0.001
0 1e-05
-0.5 0.5
ITEM: CELLS c_particles[1] 
17 
20 
21 
20 
17 
22 
11 
19 
23 
24 
18 
27 
23 
24 
14 
19 
18 
28 
20 
11 
19 
15 
22 
25 
13 
22 
18 
16 
22 
27 
18 
18 
24 
25 
26 
25 
17 
21 
24 
19 
20 
16 
20 
9 
26 
19 
23 
22 
24 
19 
15 
20 
18 
14 
22 
23 
16 
17 
25 
20 
13 
19 
25 
22 
27 
14 
29 
20 
23 
18 
17 
30 
18 
20 
21 
18 
19 
19 
20 
20 
25 
24 
13 
17 
20 
15 
17 
23 
19 
22 
24 
18 
22 
12 
14 
15 
27 
19 
21 
21 
