ITEM: TIMESTEP
102700000
ITEM: NUMBER OF CELLS
100
ITEM: BOX BOUNDS ss rr pp
0 0.001
0 1e-05
-0.5 0.5
ITEM: CELLS c_particles[1] 
12 
10 
20 
20 
15 
14 
22 
25 
16 
26 
18 
19 
13 
11 
16 
18 
26 
20 
17 
24 
17 
27 
26 
17 
19 
21 
20 
27 
16 
30 
18 
19 
23 
19 
24 
20 
24 
23 
18 
23 
16 
26 
24 
13 
25 
23 
23 
23 
19 
19 
19 
21 
22 
19 
13 
19 
17 
13 
18 
19 
26 
17 
16 
25 
23 
20 
21 
14 
18 
20 
27 
20 
16 
23 
17 
19 
15 
15 
28 
17 
23 
26 
21 
21 
20 
11 
25 
9 
23 
21 
21 
17 
37 
23 
24 
12 
24 
18 
25 
18 
