ITEM: TIMESTEP
83600000
ITEM: NUMBER OF CELLS
100
ITEM: BOX BOUNDS ss rr pp
0 0.001
0 1e-05
-0.5 0.5
ITEM: CELLS c_particles[1] 
27 
17 
26 
17 
21 
25 
16 
21 
21 
15 
24 
17 
21 
29 
21 
20 
17 
25 
21 
19 
23 
23 
17 
22 
21 
19 
28 
21 
18 
18 
12 
24 
33 
13 
14 
19 
24 
21 
16 
17 
19 
20 
21 
24 
24 
13 
22 
24 
23 
17 
17 
18 
16 
24 
20 
24 
18 
21 
19 
19 
14 
23 
13 
26 
18 
16 
20 
17 
19 
22 
21 
24 
22 
23 
19 
24 
20 
16 
12 
16 
14 
19 
17 
23 
26 
23 
17 
16 
24 
19 
14 
15 
16 
17 
19 
19 
23 
23 
23 
22 
