ITEM: TIMESTEP
395600000
ITEM: NUMBER OF CELLS
100
ITEM: BOX BOUNDS ss rr pp
0 0.001
0 1e-05
-0.5 0.5
ITEM: CELLS c_particles[1] 
25 
25 
17 
23 
21 
21 
18 
22 
17 
29 
14 
19 
24 
16 
25 
15 
11 
16 
14 
18 
20 
21 
18 
15 
27 
10 
27 
21 
25 
13 
17 
23 
16 
23 
26 
18 
21 
27 
21 
19 
17 
14 
29 
23 
16 
25 
21 
17 
24 
17 
16 
24 
25 
20 
20 
24 
19 
15 
18 
19 
25 
18 
19 
21 
20 
15 
18 
15 
25 
29 
16 
26 
22 
17 
25 
19 
22 
28 
15 
18 
17 
17 
19 
16 
21 
28 
25 
16 
13 
24 
24 
16 
23 
21 
17 
16 
13 
19 
20 
21 
