ITEM: TIMESTEP
759500000
ITEM: NUMBER OF CELLS
100
ITEM: BOX BOUNDS ss rr pp
0 0.001
0 1e-05
-0.5 0.5
ITEM: CELLS c_particles[1] 
20 
17 
24 
13 
22 
21 
17 
18 
23 
28 
25 
15 
19 
14 
16 
13 
18 
20 
21 
20 
24 
16 
7 
21 
27 
18 
19 
20 
22 
26 
26 
21 
22 
20 
19 
16 
23 
25 
19 
14 
25 
16 
29 
16 
12 
17 
19 
24 
25 
17 
24 
18 
17 
19 
18 
24 
20 
17 
25 
19 
16 
5 
20 
20 
16 
25 
17 
18 
22 
19 
24 
20 
21 
23 
12 
15 
29 
22 
19 
19 
20 
27 
19 
25 
21 
20 
29 
22 
28 
15 
25 
22 
24 
26 
16 
22 
16 
20 
13 
18 
