ITEM: TIMESTEP
712000000
ITEM: NUMBER OF CELLS
100
ITEM: BOX BOUNDS ss rr pp
0 0.001
0 1e-05
-0.5 0.5
ITEM: CELLS c_particles[1] 
22 
19 
18 
12 
25 
23 
25 
17 
27 
20 
19 
12 
30 
22 
15 
28 
25 
19 
20 
16 
19 
26 
27 
27 
18 
30 
20 
22 
18 
22 
8 
23 
21 
21 
23 
21 
15 
20 
20 
16 
15 
21 
13 
17 
23 
13 
24 
18 
17 
18 
21 
21 
18 
25 
17 
18 
21 
13 
21 
18 
28 
21 
14 
18 
16 
27 
12 
16 
19 
26 
25 
15 
16 
18 
16 
22 
17 
23 
17 
16 
15 
23 
18 
24 
23 
18 
24 
19 
21 
21 
16 
25 
18 
26 
20 
18 
20 
18 
25 
23 
