ITEM: TIMESTEP
73700000
ITEM: NUMBER OF CELLS
100
ITEM: BOX BOUNDS ss rr pp
0 0.001
0 1e-05
-0.5 0.5
ITEM: CELLS c_particles[1] 
24 
17 
22 
18 
25 
21 
11 
28 
20 
27 
17 
27 
21 
27 
18 
21 
19 
17 
17 
18 
21 
19 
24 
14 
19 
25 
16 
23 
26 
19 
21 
19 
14 
24 
27 
22 
23 
22 
11 
12 
13 
18 
19 
16 
11 
20 
19 
15 
19 
21 
14 
14 
26 
22 
20 
29 
20 
20 
20 
16 
16 
24 
17 
19 
26 
21 
21 
20 
28 
16 
17 
19 
23 
22 
18 
17 
17 
16 
21 
20 
20 
15 
32 
12 
24 
22 
23 
16 
19 
18 
17 
25 
22 
20 
20 
16 
27 
23 
19 
24 
