ITEM: TIMESTEP
47900000
ITEM: NUMBER OF CELLS
100
ITEM: BOX BOUNDS ss rr pp
0 0.001
0 1e-05
-0.5 0.5
ITEM: CELLS c_particles[1] 
14 
19 
9 
16 
13 
20 
21 
21 
20 
10 
18 
17 
22 
18 
18 
19 
19 
13 
23 
29 
23 
25 
23 
25 
15 
20 
24 
13 
17 
15 
30 
18 
22 
16 
14 
19 
23 
21 
20 
20 
20 
24 
21 
26 
21 
23 
15 
23 
15 
18 
19 
19 
25 
19 
21 
20 
13 
21 
24 
30 
19 
16 
26 
17 
19 
24 
16 
23 
20 
21 
20 
14 
19 
24 
27 
22 
14 
18 
23 
18 
26 
19 
22 
21 
24 
21 
20 
21 
17 
26 
18 
12 
27 
18 
15 
26 
31 
18 
23 
16 
