ITEM: TIMESTEP
510200000
ITEM: NUMBER OF CELLS
100
ITEM: BOX BOUNDS ss rr pp
0 0.001
0 1e-05
-0.5 0.5
ITEM: CELLS c_particles[1] 
20 
25 
20 
19 
22 
20 
24 
21 
21 
19 
23 
21 
21 
22 
21 
20 
18 
20 
19 
17 
29 
21 
21 
15 
20 
22 
18 
14 
11 
18 
23 
14 
31 
14 
15 
28 
17 
20 
14 
23 
18 
22 
23 
17 
16 
16 
26 
20 
22 
31 
21 
21 
17 
14 
15 
23 
20 
19 
19 
18 
17 
21 
17 
18 
13 
26 
25 
22 
25 
18 
20 
19 
18 
21 
22 
16 
16 
21 
18 
25 
21 
20 
19 
20 
29 
14 
19 
23 
16 
18 
24 
22 
20 
23 
17 
18 
22 
21 
19 
18 
