ITEM: TIMESTEP
597400000
ITEM: NUMBER OF CELLS
100
ITEM: BOX BOUNDS ss rr pp
0 0.001
0 1e-05
-0.5 0.5
ITEM: CELLS c_particles[1] 
25 
15 
18 
25 
22 
15 
28 
20 
23 
15 
17 
30 
19 
26 
12 
26 
17 
14 
19 
23 
25 
23 
18 
10 
22 
23 
20 
20 
17 
15 
18 
23 
20 
20 
15 
17 
24 
29 
23 
22 
19 
15 
20 
28 
23 
24 
25 
19 
9 
22 
21 
21 
28 
15 
16 
19 
19 
27 
23 
27 
16 
20 
17 
20 
20 
24 
20 
16 
11 
20 
23 
21 
17 
24 
17 
23 
17 
24 
21 
15 
20 
14 
22 
29 
23 
28 
22 
13 
20 
16 
18 
14 
20 
16 
18 
17 
16 
24 
14 
17 
