ITEM: TIMESTEP
453800000
ITEM: NUMBER OF CELLS
100
ITEM: BOX BOUNDS ss rr pp
0 0.001
0 1e-05
-0.5 0.5
ITEM: CELLS c_particles[1] 
28 
24 
14 
17 
25 
12 
25 
21 
13 
15 
23 
25 
19 
16 
20 
22 
23 
16 
21 
14 
24 
23 
30 
19 
20 
24 
26 
19 
12 
23 
28 
18 
23 
21 
27 
13 
29 
24 
15 
22 
23 
14 
22 
20 
17 
22 
14 
21 
19 
22 
20 
20 
26 
20 
21 
16 
18 
15 
30 
23 
13 
19 
19 
17 
23 
13 
18 
13 
22 
17 
12 
20 
19 
20 
25 
17 
18 
21 
19 
22 
24 
22 
19 
16 
21 
20 
25 
15 
24 
27 
19 
18 
26 
9 
19 
23 
19 
15 
18 
18 
