ITEM: TIMESTEP
196100000
ITEM: NUMBER OF CELLS
100
ITEM: BOX BOUNDS ss rr pp
0 0.001
0 1e-05
-0.5 0.5
ITEM: CELLS c_particles[1] 
18 
13 
17 
22 
15 
16 
22 
11 
27 
26 
15 
16 
18 
17 
16 
17 
15 
27 
13 
14 
29 
24 
22 
27 
14 
23 
20 
31 
23 
20 
19 
22 
17 
28 
24 
18 
23 
24 
19 
20 
20 
20 
19 
18 
17 
22 
14 
23 
18 
18 
24 
19 
17 
22 
22 
22 
21 
30 
17 
20 
24 
21 
20 
17 
20 
24 
21 
24 
16 
18 
17 
19 
15 
20 
16 
24 
22 
18 
22 
19 
18 
29 
20 
24 
20 
21 
14 
28 
14 
21 
19 
28 
15 
21 
13 
21 
21 
15 
15 
21 
