ITEM: TIMESTEP
6300000
ITEM: NUMBER OF CELLS
100
ITEM: BOX BOUNDS ss rr pp
0 0.001
0 1e-05
-0.5 0.5
ITEM: CELLS c_particles[1] 
29 
10 
22 
12 
18 
21 
16 
20 
24 
36 
16 
24 
23 
17 
23 
13 
19 
25 
18 
16 
20 
26 
22 
16 
20 
25 
18 
18 
22 
15 
28 
13 
24 
17 
20 
18 
16 
18 
15 
12 
17 
20 
29 
25 
17 
22 
20 
19 
22 
19 
24 
23 
16 
18 
29 
19 
21 
25 
22 
22 
21 
22 
19 
21 
18 
11 
15 
17 
25 
22 
20 
16 
18 
21 
18 
17 
17 
25 
19 
21 
21 
25 
30 
22 
25 
25 
17 
18 
24 
16 
22 
14 
21 
12 
15 
21 
14 
22 
21 
18 
