ITEM: TIMESTEP
424200000
ITEM: NUMBER OF CELLS
100
ITEM: BOX BOUNDS ss rr pp
0 0.001
0 1e-05
-0.5 0.5
ITEM: CELLS c_particles[1] 
20 
13 
17 
24 
17 
24 
18 
12 
16 
29 
30 
30 
25 
26 
19 
16 
26 
15 
21 
20 
26 
20 
15 
17 
18 
22 
21 
18 
18 
18 
21 
19 
27 
19 
25 
13 
27 
24 
22 
18 
19 
17 
20 
23 
15 
18 
14 
19 
17 
19 
21 
25 
23 
24 
28 
22 
26 
15 
22 
15 
12 
18 
16 
21 
16 
15 
16 
20 
12 
19 
16 
24 
23 
14 
25 
23 
15 
27 
21 
18 
17 
18 
29 
14 
22 
23 
24 
19 
25 
22 
22 
12 
14 
16 
23 
14 
18 
20 
26 
23 
