ITEM: TIMESTEP
298900000
ITEM: NUMBER OF CELLS
100
ITEM: BOX BOUNDS ss rr pp
0 0.001
0 1e-05
-0.5 0.5
ITEM: CELLS f_temp1[*] 
342.896 
341.811 
339.135 
345.11 
339.114 
340.417 
341.148 
342.382 
341.466 
339.847 
344.641 
342.603 
341.587 
344.633 
340.217 
341.415 
344.117 
341.637 
349.083 
338.598 
342.312 
344.005 
345.442 
343.406 
342.426 
346.856 
345.436 
342.522 
341.895 
344.31 
346.387 
346.517 
342.98 
344.62 
342.824 
343.764 
343.187 
342.27 
346.805 
346.343 
347.157 
347.37 
347.11 
346.022 
346.812 
349.548 
350.309 
348.877 
351.439 
349.036 
348.866 
354.606 
346.714 
347.787 
351.099 
346.118 
346.02 
348.657 
347.678 
346.781 
347.345 
346.725 
346.525 
345.874 
349.069 
351.838 
351.385 
351.205 
347.565 
348.269 
350.378 
354.017 
348.37 
351.255 
349.04 
350.422 
351.446 
346.74 
350.546 
353.397 
351.36 
350.007 
350.548 
352.455 
349.83 
352.278 
353.677 
354.366 
352.046 
352.686 
348.775 
355.043 
353.699 
354.626 
349.963 
353.346 
356.713 
354.973 
354.659 
352.937 
