ITEM: TIMESTEP
175900000
ITEM: NUMBER OF CELLS
100
ITEM: BOX BOUNDS ss rr pp
0 0.001
0 1e-05
-0.5 0.5
ITEM: CELLS f_temp1[*] 
337.631 
342.616 
337.466 
341.667 
336.754 
341.479 
338.523 
339.044 
337.342 
338.602 
338.336 
338.189 
340.261 
341.025 
339.558 
340.673 
343.333 
342.25 
338.959 
340.443 
339.77 
342.692 
339.164 
343.551 
343.974 
341.657 
341.372 
340.307 
344.408 
341.714 
343.813 
342.434 
345.255 
340.262 
344.851 
339.492 
344.206 
346.517 
344.131 
346.383 
344.419 
342.98 
343.409 
346.197 
346.349 
345.325 
347.523 
344.748 
343.72 
345.689 
347.907 
350.437 
346.282 
347.283 
342.501 
345.326 
348.356 
348.923 
347.19 
346.009 
350.962 
345.843 
348.457 
346.511 
348.915 
347.236 
347.284 
348.712 
349.132 
346.801 
345.772 
351.879 
350.264 
350.481 
349.253 
345.491 
352.205 
350.992 
350.33 
348.633 
347.503 
347.56 
349.124 
350.121 
352.431 
353.382 
348.368 
352.175 
348.967 
352.262 
352.953 
348.026 
352.723 
355.615 
351.175 
347.925 
350.766 
352.018 
353.537 
352.164 
