ITEM: TIMESTEP
644900000
ITEM: NUMBER OF CELLS
100
ITEM: BOX BOUNDS ss rr pp
0 0.001
0 1e-05
-0.5 0.5
ITEM: CELLS f_temp1[*] 
338.13 
337.515 
337.094 
341.109 
338.081 
343.228 
342.644 
341.399 
340.539 
340.173 
341.753 
342.105 
341.309 
339.07 
344.078 
341.506 
344.183 
344.499 
343.95 
343.189 
343.439 
345.271 
343.552 
346.178 
342.732 
340.085 
343.561 
341.702 
347.346 
341.564 
346.162 
345.329 
343.552 
347.477 
341.238 
346.812 
343.611 
339.09 
346.2 
348.805 
343.586 
345.821 
346.067 
350.232 
342.808 
346.509 
345.306 
348.342 
349.081 
346.982 
347.449 
348.904 
346.026 
347.911 
345.867 
346.056 
346.057 
347.348 
350.579 
344.826 
347.815 
351.088 
346.521 
348.191 
347.364 
348.61 
348.054 
344.189 
350.549 
347.128 
346.656 
344.482 
348.07 
350.386 
348.642 
350.37 
350.55 
346.925 
353.462 
349.636 
347.715 
349.795 
348.363 
351.458 
351.083 
348.242 
350.525 
352.892 
349.772 
346.141 
349.881 
350.894 
353.349 
351.962 
350.059 
353.978 
350.519 
350.865 
348.418 
353.262 
