ITEM: TIMESTEP
290000000
ITEM: NUMBER OF CELLS
100
ITEM: BOX BOUNDS ss rr pp
0 0.001
0 1e-05
-0.5 0.5
ITEM: CELLS f_temp1[*] 
336.972 
339.384 
338.113 
338.792 
338.16 
338.303 
340.02 
339.312 
342.177 
341.918 
340.684 
341.913 
344.68 
341.213 
340.3 
345.205 
342.183 
344.098 
342.168 
345.329 
341.133 
349.353 
341.969 
340.205 
343.861 
342.902 
340.953 
340.598 
342.952 
344.521 
345.931 
344.698 
342.647 
342.245 
344.735 
343.403 
344.313 
343.682 
343.644 
344.197 
348.119 
345.006 
347.388 
345.353 
346.969 
349.879 
348.328 
345.026 
343.572 
349.236 
346.785 
346.07 
345.815 
350.641 
346.31 
347.075 
349.059 
349.111 
349.437 
346.06 
348.563 
346.434 
346.925 
348.441 
349.183 
346.175 
345.625 
346.167 
348.172 
346.959 
348.318 
346.81 
351.327 
353.925 
347.509 
348.505 
352.515 
353.001 
347.392 
355.256 
351.048 
352.841 
351.07 
349.835 
350.655 
352.977 
354.955 
349.287 
346.455 
353.078 
353.733 
353.154 
350.74 
350.667 
347.741 
349.715 
350.835 
353.377 
350.64 
356.256 
