ITEM: TIMESTEP
497900000
ITEM: NUMBER OF CELLS
100
ITEM: BOX BOUNDS ss rr pp
0 0.001
0 1e-05
-0.5 0.5
ITEM: CELLS f_temp1[*] 
339.086 
341.117 
340.625 
340.949 
341.36 
339.434 
343.591 
337.68 
343.344 
340.87 
342.645 
346.12 
341.327 
337.332 
342.022 
343.728 
339.886 
341.161 
340.408 
342.84 
344.567 
341.56 
343.718 
345.153 
345.443 
346.999 
344.088 
342.881 
344.865 
342.841 
346.669 
341.529 
348.215 
345.15 
347.596 
347.415 
345.853 
349.471 
348.22 
341.796 
347.834 
347.234 
346.651 
350.18 
347.82 
349.226 
346.745 
348.827 
348.911 
349.854 
350.613 
345.971 
350.025 
347.629 
348.702 
347.047 
350.403 
347.93 
348.264 
345.474 
353.499 
347.41 
345.012 
348.571 
351.047 
353.076 
347.784 
346.787 
352.547 
349.248 
346.169 
351.226 
351.249 
348.666 
350.006 
349.748 
348.849 
353.148 
350.57 
349.867 
352.163 
350.89 
349.305 
353.351 
351.297 
352.639 
349.777 
348.809 
353.649 
353.053 
353.376 
354.902 
354.174 
350.836 
352.077 
353.194 
354.365 
353.371 
351.37 
356.81 
