ITEM: TIMESTEP
721400000
ITEM: NUMBER OF CELLS
100
ITEM: BOX BOUNDS ss rr pp
0 0.001
0 1e-05
-0.5 0.5
ITEM: CELLS f_temp1[*] 
336.834 
341.942 
342.921 
339.941 
339.732 
337.788 
339.222 
342.762 
341.819 
343.727 
346.428 
341.899 
340.91 
342.186 
340.853 
344.704 
340.741 
339.824 
340.228 
344.944 
344.034 
344.23 
343.528 
342.282 
345.252 
342.235 
345.917 
343.656 
344.614 
344.725 
343.879 
346.098 
345.957 
342.506 
346.056 
347.832 
345.751 
345.557 
346.601 
344.261 
345.945 
346.981 
345.472 
351.248 
351.16 
348.786 
345.41 
345.504 
343.365 
347.114 
346.314 
343.503 
347.762 
345.812 
347.016 
346.891 
347.216 
347.723 
348.246 
346.943 
347.975 
349.817 
352.152 
347.903 
348.694 
352.194 
350.135 
346.226 
349.796 
351.119 
350.267 
347.442 
348.935 
350.734 
349.383 
349.132 
347.609 
349.022 
354.127 
350.434 
350.731 
353.316 
354.19 
348.999 
349.487 
352.862 
352.549 
348.366 
351.524 
351.563 
353.038 
352.291 
348.548 
352.079 
354.286 
354.498 
354.427 
351.522 
349.919 
352.763 
