ITEM: TIMESTEP
326100000
ITEM: NUMBER OF CELLS
100
ITEM: BOX BOUNDS ss rr pp
0 0.001
0 1e-05
-0.5 0.5
ITEM: CELLS f_temp1[*] 
335.194 
336.086 
337.939 
341.631 
341.638 
340.072 
338.176 
344.383 
344.891 
339.852 
346.555 
339.427 
342.032 
342.64 
339.708 
342.923 
342.947 
341.83 
340.967 
344.811 
345.749 
343.933 
345.963 
344.397 
342.618 
342.737 
343.237 
345.616 
345.681 
344.124 
341.893 
344.94 
345.315 
347.335 
348.676 
342.464 
345.375 
345.149 
347.359 
345.217 
349.145 
340.568 
344.782 
349.361 
346.981 
345.679 
346.482 
344.954 
346.244 
348.361 
346.313 
348.188 
347.256 
346.382 
344.801 
345.858 
344.433 
348.154 
347.124 
345.848 
344.201 
348.028 
348.112 
348.477 
348.003 
347.102 
346.224 
345.99 
348.989 
350.439 
348.218 
347.402 
346.447 
350.186 
350.15 
347.156 
349.997 
349.223 
347.973 
349.094 
350.852 
351.88 
349.387 
351.37 
352.24 
356.044 
350.1 
352.42 
350.816 
348.915 
350.529 
350.872 
350.935 
346.402 
351.202 
352.3 
355.838 
350.765 
354.488 
353.415 
