ITEM: TIMESTEP
410500000
ITEM: NUMBER OF CELLS
100
ITEM: BOX BOUNDS ss rr pp
0 0.001
0 1e-05
-0.5 0.5
ITEM: CELLS f_temp1[*] 
339.462 
341.31 
343.253 
342.625 
341.981 
343.014 
342.129 
343.901 
343.384 
340.65 
340.531 
342.06 
344.345 
337.853 
341.824 
344.158 
343.636 
344.818 
343.98 
348.055 
343.364 
347.027 
343.896 
343.963 
341.713 
346.628 
344.974 
342.983 
345.225 
347.575 
346.685 
344.108 
344.124 
345.369 
341.827 
348.393 
348.68 
346.457 
347.067 
342.421 
342.839 
347.728 
347.757 
348.294 
346.056 
345.164 
344.819 
347.338 
348.288 
345.541 
349.252 
344.873 
349.186 
348.904 
345.012 
348.494 
347.155 
346.184 
342.726 
346.901 
345.732 
346.485 
346.205 
349.859 
350.882 
346.614 
347.701 
352.433 
347.063 
354.946 
348.66 
350.84 
348.939 
352.172 
348.576 
349.115 
350.315 
353.255 
351.624 
355.33 
348.9 
353.382 
348.457 
348.995 
353.576 
353.249 
353.123 
348.85 
351.811 
354.234 
354.638 
351.357 
350.362 
352.989 
355.428 
351.494 
354.051 
354.536 
351.648 
353.178 
