ITEM: TIMESTEP
451700000
ITEM: NUMBER OF CELLS
100
ITEM: BOX BOUNDS ss rr pp
0 0.001
0 1e-05
-0.5 0.5
ITEM: CELLS f_temp1[*] 
339.39 
337.124 
337.762 
343.767 
340.09 
340.652 
338.02 
339.869 
340.989 
342.39 
341.428 
343.42 
340.593 
343.364 
346.479 
341.493 
342.647 
342.578 
339.492 
341.583 
341.362 
338.873 
343.949 
346.747 
345.602 
343.375 
342.666 
343.617 
342.183 
347.176 
344.159 
342.683 
343.949 
343.655 
344.549 
346.299 
347.485 
341.851 
343.864 
347.043 
346.204 
345.677 
347.134 
349.775 
349.703 
343.496 
342.927 
347.397 
345.382 
350.183 
344.173 
344.646 
347.82 
344.863 
348.506 
348.358 
347.971 
348.163 
349.496 
348.218 
344.446 
350.221 
347.318 
348.375 
346.605 
346.132 
345.595 
350.875 
347.726 
345.25 
353.851 
351.387 
348.229 
345.091 
350.006 
349.713 
351.518 
348.737 
352.765 
351.49 
347.758 
352.407 
347.807 
352.357 
352.221 
350.901 
350.008 
350.968 
345.297 
350.274 
355.561 
350.154 
353.958 
351.902 
355.015 
355.549 
352.969 
353.058 
353.553 
353.156 
