ITEM: TIMESTEP
297200000
ITEM: NUMBER OF CELLS
100
ITEM: BOX BOUNDS ss rr pp
0 0.001
0 1e-05
-0.5 0.5
ITEM: CELLS f_temp1[*] 
336.454 
335.496 
339.483 
338.324 
340.618 
340.824 
340.976 
339.286 
338.815 
339.975 
340.26 
343.58 
341.049 
342.184 
344.587 
345.028 
341.904 
342.837 
346.516 
341.655 
343.414 
342.855 
344.012 
342.663 
344.871 
343.898 
342.578 
345.296 
348.555 
342.088 
338.67 
343.725 
346.121 
345.597 
343.302 
345.107 
345.951 
346.619 
345.798 
344.391 
344.908 
348.44 
341.516 
344.885 
345.815 
345.067 
346.03 
352.024 
343.943 
347.669 
343.741 
345.555 
343.953 
349.27 
347.117 
346.424 
344.97 
343.598 
350.532 
348.668 
350.52 
347.442 
349.161 
347.253 
348.148 
348.048 
349.908 
350.263 
348.409 
348.012 
348.882 
349.625 
349.485 
351.78 
350.566 
350.839 
352.688 
352.872 
354.582 
352.435 
350.394 
352.229 
354.967 
348.903 
355.322 
348.193 
351.814 
351.801 
351.184 
352.392 
348.459 
352.543 
355.715 
351.879 
352.837 
350.534 
354.833 
353.402 
354.989 
355.509 
