ITEM: TIMESTEP
300400000
ITEM: NUMBER OF CELLS
100
ITEM: BOX BOUNDS ss rr pp
0 0.001
0 1e-05
-0.5 0.5
ITEM: CELLS f_temp1[*] 
340.742 
342.276 
338.036 
341.848 
337.441 
339.479 
341.254 
337.147 
343.686 
341.882 
346.269 
340.827 
338.082 
341.675 
340.393 
341.3 
345.451 
344.752 
340.131 
343.457 
342.338 
344.112 
342.909 
343.918 
341.23 
341.485 
343.864 
343.276 
346.936 
349.001 
344.952 
345.409 
343.514 
341.068 
343.614 
346.493 
343.767 
345.076 
344.695 
349.564 
343.149 
347.076 
347.284 
346.655 
350.195 
345.9 
348 
346.161 
344.856 
343.791 
348.801 
348.249 
348.458 
346.297 
342.346 
346.387 
344.107 
345.642 
350.387 
347.277 
345.559 
348.9 
346.706 
347.038 
350.725 
346.141 
346.458 
346.036 
349.096 
347.936 
350.723 
350.011 
348.312 
346.764 
352.513 
346.929 
355.856 
348.708 
350.626 
348.437 
353.694 
346.982 
349.753 
354.456 
353.387 
350.036 
351.056 
350.762 
354.291 
347.409 
352.636 
353.86 
350.294 
352.402 
347.91 
352.584 
351.493 
351.671 
353.756 
353.363 
