ITEM: TIMESTEP
161400000
ITEM: NUMBER OF CELLS
100
ITEM: BOX BOUNDS ss rr pp
0 0.001
0 1e-05
-0.5 0.5
ITEM: CELLS f_temp1[*] 
339.191 
338.159 
338.855 
340.872 
340.828 
341.271 
341.27 
343.014 
339.606 
341.742 
342.484 
346.585 
340.409 
341.561 
341.258 
340.096 
348.121 
340.957 
340.079 
344.41 
342.225 
342.414 
344.163 
345.228 
342.652 
348.82 
344.774 
347.295 
347.173 
345.398 
345.641 
343.219 
341.06 
345.565 
348.183 
347.843 
345.708 
346.871 
346.334 
345.972 
342.365 
347.263 
347.025 
342.672 
346 
347.835 
347.507 
345.643 
347.872 
346.378 
347.587 
344.073 
347.709 
347.978 
347.837 
341.953 
345.871 
345.858 
347.83 
350.04 
349.201 
345.855 
349.401 
351.996 
345.735 
351.17 
350.5 
350.068 
345.834 
349.907 
349.692 
347.313 
349.623 
348.894 
349.277 
350.505 
353.554 
348.555 
352.784 
348.96 
349.511 
351.126 
351.373 
349.908 
353.345 
353.089 
350.498 
354.329 
351.106 
351.897 
350.626 
351.293 
349.973 
351.372 
349.225 
350.515 
349.814 
351.518 
349.456 
356.802 
