ITEM: TIMESTEP
555800000
ITEM: NUMBER OF CELLS
100
ITEM: BOX BOUNDS ss rr pp
0 0.001
0 1e-05
-0.5 0.5
ITEM: CELLS f_temp1[*] 
337.535 
334.907 
339.499 
340.221 
338.928 
338.42 
339.812 
341.064 
339.517 
342.258 
341.703 
338.852 
344.003 
341.786 
341.752 
341.883 
337.499 
345.51 
342.413 
341.299 
345.02 
340.931 
342.558 
341.365 
344.1 
339.024 
339.28 
344.237 
341.223 
343.07 
341.302 
342.365 
344.902 
346.549 
344.989 
340.059 
344.087 
344.931 
346.812 
343.332 
345.423 
344.677 
346.551 
342.547 
345.861 
343.756 
349.883 
346.067 
349.312 
346.933 
343.298 
343.557 
349.241 
346.704 
347.215 
345.841 
344.283 
344.361 
348.342 
348.634 
349.634 
350.762 
348.047 
347.305 
348.739 
354.053 
348.73 
349.735 
348.048 
351.215 
353.001 
348.706 
350.992 
349.219 
348.965 
352.067 
349.027 
350.465 
349.865 
354.763 
347.871 
347.867 
349.1 
350.521 
351.924 
352.9 
353.097 
350.929 
349.378 
351.648 
352.095 
351.264 
348.138 
350.562 
350.497 
352.283 
353.358 
354.003 
356.075 
349.768 
