ITEM: TIMESTEP
217700000
ITEM: NUMBER OF CELLS
100
ITEM: BOX BOUNDS ss rr pp
0 0.001
0 1e-05
-0.5 0.5
ITEM: CELLS f_temp1[*] 
340.623 
338.46 
341.378 
338.081 
344.041 
342.47 
340.357 
347.479 
338.728 
340.866 
342.228 
341.579 
339.763 
340.178 
345.648 
343.882 
343.712 
342.516 
345.273 
343.213 
344.153 
342.717 
346.009 
345.548 
343.25 
347.923 
342.755 
342.098 
343.383 
341.388 
342.053 
345.806 
344.248 
341.283 
344.277 
341.668 
346.443 
342.717 
345.318 
343.347 
345.563 
341.11 
347.028 
344.813 
344.102 
345.006 
343.631 
342.506 
346.764 
349.327 
347.966 
346.196 
344.523 
342.611 
347.555 
341.955 
347.375 
348.918 
347.935 
347.036 
348.668 
348.623 
347.11 
349.662 
351.199 
348.035 
347.326 
348.472 
347.631 
348.005 
351.697 
348.258 
348.98 
352.517 
350.805 
345.207 
354.149 
348.65 
348.569 
351.051 
348.144 
351.125 
347.76 
349.044 
350.535 
350.047 
351.253 
350.424 
353.222 
354.725 
354.945 
349.401 
356.703 
357.299 
355.092 
354.033 
351.451 
352.651 
355.569 
351.882 
