ITEM: TIMESTEP
449000000
ITEM: NUMBER OF CELLS
100
ITEM: BOX BOUNDS ss rr pp
0 0.001
0 1e-05
-0.5 0.5
ITEM: CELLS f_temp1[*] 
336.655 
337.996 
339.749 
336.837 
339.71 
336.224 
338.965 
339.356 
340.126 
337.497 
342.677 
340.787 
341.207 
341.142 
338.841 
340.788 
337.798 
341.78 
343.224 
340.71 
342.926 
340.994 
339.959 
344.932 
342.442 
339.005 
344.934 
340.166 
343.666 
344.561 
343.874 
345.325 
340.658 
345.091 
342.619 
344.942 
344.991 
345.713 
344.712 
342.729 
343.115 
345.824 
346.075 
346.146 
347.148 
342.643 
342.427 
343.993 
347.48 
344.485 
342.976 
345.398 
344.416 
345.755 
344.18 
346.016 
347.563 
347.004 
342.186 
342.33 
342.273 
344.65 
347.413 
348.593 
346.332 
346.629 
347.952 
346.152 
346.588 
345.131 
346.033 
346.791 
349.745 
348.882 
348.299 
349.276 
350.31 
345.329 
349.511 
350.295 
351.701 
350.506 
349.903 
347.5 
351.275 
350.411 
347.961 
351.609 
354.196 
349.502 
350.723 
351.793 
352.064 
350.634 
352.039 
356.693 
353.085 
354.22 
354.638 
353.839 
