ITEM: TIMESTEP
735800000
ITEM: NUMBER OF CELLS
100
ITEM: BOX BOUNDS ss rr pp
0 0.001
0 1e-05
-0.5 0.5
ITEM: CELLS f_temp1[*] 
342.667 
342.166 
338.887 
344.672 
346.495 
342.509 
343.643 
342.262 
344.056 
347.097 
337.913 
344.154 
342.895 
349.101 
347.086 
344.752 
344.323 
346.886 
344.399 
341.388 
340.728 
343.979 
347.788 
344.549 
341.671 
346.426 
342.795 
341.472 
343.256 
342.502 
345.084 
339.972 
345.756 
344.874 
345.563 
345.968 
348.079 
346.021 
344.492 
349.066 
345.731 
349.56 
348.645 
346.841 
342.774 
344.096 
346.671 
347.161 
346.377 
346.574 
347.243 
349.513 
346.6 
351.333 
347.196 
346.918 
348.647 
346.092 
346.843 
344.257 
348.951 
348.647 
348.988 
347.947 
344.88 
351.118 
347.82 
350.626 
347.778 
347.05 
349.825 
348.514 
353.083 
351.708 
348.987 
350.722 
349.598 
348.247 
351.129 
347.465 
347.102 
352.609 
350.614 
354.032 
346.076 
350.135 
356.18 
352.472 
352.041 
351.296 
351.123 
354.725 
353.97 
349.591 
349.483 
356.108 
351.501 
350.224 
353.469 
351.903 
