ITEM: TIMESTEP
126400000
ITEM: NUMBER OF CELLS
100
ITEM: BOX BOUNDS ss rr pp
0 0.001
0 1e-05
-0.5 0.5
ITEM: CELLS f_temp1[*] 
336.72 
337.602 
340.745 
339.252 
336.211 
337.018 
341.576 
341.566 
337.398 
339.174 
340.981 
338.573 
343.838 
340.811 
343.529 
345.141 
344.202 
345.569 
341.717 
343.19 
341.507 
341.455 
343.875 
342.399 
344.123 
342.175 
342.565 
346.286 
346.51 
345.586 
349.862 
347.8 
343.915 
345.14 
346.359 
344.62 
345.25 
345.233 
349.131 
346.181 
344.636 
346.74 
346.884 
347.629 
347.789 
349.225 
346.401 
344.647 
346.927 
348.684 
348.576 
345.852 
346.68 
348.515 
349.597 
345.218 
345.7 
350.697 
347.101 
349.523 
347.671 
344.326 
347.992 
346.812 
347.084 
348.266 
347.22 
347.761 
349.089 
351.163 
351.277 
347.459 
348.799 
352.169 
350.016 
349.652 
348.982 
351.444 
348.072 
352.3 
348.442 
349.73 
347.073 
351.574 
348.752 
349.648 
348.914 
353.057 
350.201 
351.522 
351.198 
348.19 
353.209 
353.058 
356.136 
352.767 
347.622 
347.576 
351.844 
354.901 
