ITEM: TIMESTEP
6500000
ITEM: NUMBER OF CELLS
100
ITEM: BOX BOUNDS ss rr pp
0 0.001
0 1e-05
-0.5 0.5
ITEM: CELLS f_temp1[*] 
335.529 
342.138 
342.497 
341.004 
340.844 
345.041 
342.544 
338.847 
341.897 
336.992 
341.353 
342.718 
346.139 
341.485 
339.031 
344.069 
338.977 
344.044 
342.237 
345.516 
345.952 
345.967 
341.736 
341.789 
342.574 
344.95 
343.217 
340.145 
343.024 
344.755 
343.956 
346.281 
345.27 
343.652 
347.639 
344.93 
341.214 
341.416 
340.658 
348.033 
341.374 
344.065 
348.796 
341.701 
346.661 
345.529 
344.91 
347.046 
345.937 
347.132 
347.708 
350.498 
346.665 
344.194 
346.057 
350.001 
346.81 
345.722 
351.306 
348.745 
349.759 
349.347 
349.193 
352.217 
347.803 
347.917 
348.855 
348.429 
347.271 
349.102 
350.543 
347.483 
349.792 
349.432 
351.401 
352.064 
349.708 
351.497 
345.682 
350.464 
350.313 
351.413 
346.504 
346.706 
349.247 
351.814 
352.242 
353.373 
349.775 
355.894 
354.316 
352.8 
350.017 
354.863 
349.988 
353.74 
352.647 
351.704 
352.375 
356.683 
