ITEM: TIMESTEP
163900000
ITEM: NUMBER OF CELLS
100
ITEM: BOX BOUNDS ss rr pp
0 0.001
0 1e-05
-0.5 0.5
ITEM: CELLS f_temp1[*] 
335.967 
340.208 
339.636 
338.775 
340.03 
343.742 
342.099 
342.275 
342.453 
344.351 
344.454 
340.151 
344.808 
344.679 
343.87 
340.616 
345.751 
342.282 
341.095 
345.307 
342.909 
344.575 
344.442 
343.551 
345.099 
343.755 
345.76 
347.348 
341.776 
345.343 
344.102 
345.704 
346.11 
345.791 
347.564 
346.925 
346.794 
344.537 
345.668 
347.813 
348.079 
342.844 
344.719 
345.55 
347.661 
345.064 
343.635 
349.228 
351.795 
349.876 
348.661 
350.06 
347.944 
350.28 
348.416 
345.163 
348.609 
349.376 
348.198 
344.752 
347.209 
350.231 
349.637 
349.443 
348.038 
349.827 
349.731 
350.271 
352.181 
350.452 
354.394 
353.725 
348.588 
348.579 
353.706 
352.969 
352.739 
351.61 
350.259 
355.845 
346.331 
351.976 
352.81 
353.173 
355.101 
351.34 
355.463 
350.269 
355.478 
355.525 
349.718 
354.516 
351.222 
350.407 
350.332 
354.065 
349.072 
351.653 
353.556 
351.59 
