ITEM: TIMESTEP
736300000
ITEM: NUMBER OF CELLS
100
ITEM: BOX BOUNDS ss rr pp
0 0.001
0 1e-05
-0.5 0.5
ITEM: CELLS f_temp1[*] 
336.817 
336.216 
337.866 
339.153 
341.328 
342.548 
342.182 
339.475 
340.402 
339.456 
341.016 
344.776 
344.043 
342.33 
343.621 
338.621 
340.752 
342.885 
341.135 
343.355 
343.184 
341.465 
342.014 
340.74 
344.388 
342.534 
342.57 
346.526 
346.509 
348.59 
341.628 
344.541 
343.729 
341.895 
343.741 
344.306 
343.486 
348.518 
341.805 
346.984 
344.672 
344.96 
343.614 
345.142 
343.939 
345.934 
347.711 
347.435 
345.646 
348.195 
346.209 
344.269 
346.7 
344.76 
347.808 
349.443 
346.588 
343.477 
349.409 
349.719 
347.588 
347.639 
349.713 
349.244 
349.15 
346.351 
348.873 
350.108 
349.62 
350.64 
347.774 
351.787 
347.294 
349.784 
349.44 
350.763 
353.118 
354.392 
350.613 
346.222 
345.524 
351.98 
349.692 
349.877 
351.663 
351.408 
351.881 
352.521 
348.694 
355.763 
350.378 
350.225 
350.404 
350.911 
352.148 
351.299 
348.781 
352 
354.088 
350.322 
