ITEM: TIMESTEP
418900000
ITEM: NUMBER OF CELLS
100
ITEM: BOX BOUNDS ss rr pp
0 0.001
0 1e-05
-0.5 0.5
ITEM: CELLS f_temp1[*] 
340.105 
337.873 
342.984 
344.472 
339.312 
340.03 
342.236 
342.495 
343.047 
346.255 
342.731 
341.945 
339.894 
343.888 
338.769 
340.722 
343.016 
347.112 
344.394 
341.197 
341.889 
341.02 
345.66 
342.647 
345.346 
342.095 
344.585 
344.148 
343.683 
343.196 
348.266 
343.681 
343.167 
346.415 
344.074 
345.788 
345.636 
347.044 
350.868 
347.568 
346.865 
349.71 
345.137 
345.468 
348.561 
349.099 
344.368 
347.594 
344.778 
347.672 
347.863 
348.037 
349.427 
342.731 
348.765 
347.004 
348.541 
349.961 
350.829 
348.68 
347.122 
350.839 
352.578 
347.967 
350.114 
351.985 
352.102 
345.969 
348.27 
350.033 
351.369 
350.468 
349.17 
349.853 
349.137 
350.089 
351.064 
351.215 
349.232 
349.65 
350.331 
353.136 
354.809 
354.219 
348.074 
353.378 
350.136 
354.009 
351.153 
352.661 
352.76 
350.157 
351.522 
355.22 
349.609 
354.688 
356.865 
355.191 
356.205 
352.553 
