ITEM: TIMESTEP
552700000
ITEM: NUMBER OF CELLS
100
ITEM: BOX BOUNDS ss rr pp
0 0.001
0 1e-05
-0.5 0.5
ITEM: CELLS f_temp1[*] 
342.223 
338.491 
338.728 
341.053 
339.577 
342.067 
344.006 
341.101 
343.506 
338.213 
343.577 
338.72 
342.636 
340.774 
339.062 
340.571 
343.218 
344.124 
341.732 
343.124 
341.246 
342.937 
345.123 
342.769 
343.123 
344.92 
346.018 
346.107 
345.891 
350.03 
343.183 
340.903 
343.883 
346.84 
341.863 
345.471 
345.25 
344.13 
344.46 
346.943 
350.377 
345.724 
345.597 
348.527 
344.791 
344.446 
348.778 
346.18 
349.75 
349.668 
350.438 
345.141 
343.739 
350.114 
349.872 
349.272 
348.82 
348.996 
354.377 
346.665 
348.211 
348.053 
345.612 
348.933 
351.244 
352.969 
352.917 
349.417 
351.736 
348.474 
348.876 
350.376 
348.524 
350.324 
348.263 
351.315 
348.723 
347.91 
349.46 
353.577 
350.057 
352.111 
349.471 
352.961 
351.238 
351.094 
349.551 
354.875 
355.552 
352.274 
352.786 
350.901 
349.46 
353.679 
353.449 
351.113 
355.179 
350.064 
355.481 
354.965 
