ITEM: TIMESTEP
508800000
ITEM: NUMBER OF CELLS
100
ITEM: BOX BOUNDS ss rr pp
0 0.001
0 1e-05
-0.5 0.5
ITEM: CELLS f_temp1[*] 
336.212 
338.969 
337.583 
339.225 
339.33 
342.13 
341.107 
339.447 
337.71 
339.746 
340.998 
338.644 
339.881 
339.756 
337.03 
337.966 
342.625 
342.097 
344.105 
340.747 
344.04 
342.22 
342.238 
338.767 
342.732 
343.611 
342.519 
338.188 
341.292 
341.486 
343.85 
342.162 
342.079 
343.502 
340.935 
339.156 
340.752 
342.715 
344.831 
342.889 
347.465 
345.769 
343.986 
341.076 
342.586 
345.193 
345.071 
346.129 
345.003 
343.869 
345.846 
342.42 
345.57 
346.099 
342.393 
340.935 
346.975 
344.941 
343.768 
345.837 
342.638 
346.009 
347.26 
346.536 
347.676 
341.927 
345.939 
344.215 
344.021 
345.524 
346.186 
345.812 
347.674 
345.505 
349.94 
348.225 
347.2 
347.085 
348.578 
347.534 
346.763 
350.007 
349.823 
353.196 
347.919 
345.341 
350.179 
352.73 
349.398 
350.47 
352.508 
349.931 
350.56 
352.661 
351.162 
351.624 
350.865 
355.318 
354.585 
353.905 
