ITEM: TIMESTEP
586800000
ITEM: NUMBER OF CELLS
100
ITEM: BOX BOUNDS ss rr pp
0 0.001
0 1e-05
-0.5 0.5
ITEM: CELLS f_temp1[*] 
336.242 
339.284 
337.14 
338.755 
338.199 
337.013 
338.413 
340.616 
338.48 
346.83 
342.519 
341.29 
341.83 
343.819 
335.977 
340.062 
336.823 
341.46 
343.371 
343.911 
342.292 
345.172 
344.23 
344.453 
345.252 
343.697 
344.889 
346.218 
342.717 
347.018 
346.075 
342.476 
345.419 
342.871 
345.715 
347.068 
344.808 
344.362 
347.55 
344.129 
346 
347.779 
343.619 
344.81 
345.365 
344.609 
343.632 
343.537 
346.311 
346.573 
347.9 
350.306 
345.739 
341.641 
351.528 
349.167 
347.682 
347.669 
352.153 
348.702 
349.733 
348.7 
349.433 
350.615 
347.384 
345.727 
351.069 
349.474 
347.579 
349.64 
347.522 
347.876 
352.953 
353.139 
348.743 
349.999 
351.335 
351.747 
350.969 
350.268 
349.75 
350.884 
352.056 
353.197 
351.33 
351.632 
351.366 
355.673 
354.8 
350.493 
352.85 
352.153 
350.804 
354.169 
348.981 
353.274 
350.032 
353.93 
356.633 
356.015 
