ITEM: TIMESTEP
278300000
ITEM: NUMBER OF CELLS
100
ITEM: BOX BOUNDS ss rr pp
0 0.001
0 1e-05
-0.5 0.5
ITEM: CELLS f_temp1[*] 
341.357 
341.684 
341.877 
339.183 
337.227 
340.223 
342.645 
337.903 
339.599 
339.46 
341.727 
345.936 
341.293 
339.823 
339.904 
341.061 
341.14 
342.659 
344.04 
339.217 
344.426 
344.909 
343.866 
344.886 
342.103 
342.947 
343.13 
343.258 
343.207 
342.739 
341.903 
344.828 
348.411 
346.066 
344.984 
340.452 
348.805 
342.035 
344.12 
348.025 
342.137 
344.584 
347.328 
346.314 
349.102 
343.364 
345.412 
345.169 
341.031 
347.861 
346.372 
346.372 
344.253 
347.28 
346.269 
344.124 
342.797 
342.926 
344.053 
347.348 
349.48 
346.308 
347.111 
347.602 
345.13 
349.637 
344.183 
351.248 
348.958 
352.035 
346.543 
348.908 
348.083 
350.973 
348.494 
349.063 
348.695 
348.645 
346.744 
349.105 
350.616 
348.386 
352.367 
347.03 
349.411 
349.526 
351.734 
350.801 
348.421 
350.292 
349.589 
350.648 
349.906 
354.992 
349.278 
352.188 
354.933 
355.291 
349.852 
354.106 
