ITEM: TIMESTEP
348300000
ITEM: NUMBER OF CELLS
100
ITEM: BOX BOUNDS ss rr pp
0 0.001
0 1e-05
-0.5 0.5
ITEM: CELLS f_temp1[*] 
339.72 
336.152 
337.793 
339.305 
342.109 
342.38 
341.454 
338.541 
342.752 
341.559 
341.35 
345.097 
344.611 
341.129 
342.48 
341.598 
341.042 
344.07 
338.894 
342.834 
341.315 
340.626 
343.045 
342.638 
344.446 
344.306 
341.416 
344.737 
346.731 
342.224 
340.634 
340.077 
342.103 
346.274 
342.99 
342.361 
338.348 
349.746 
341.096 
343.413 
343.755 
345.412 
345.953 
345.967 
347.823 
343.399 
351.381 
345.765 
345.896 
341.797 
348.492 
344.028 
349.925 
345.687 
347.434 
349.095 
346.016 
345.808 
347.24 
350.235 
347.896 
347.397 
346.909 
351.546 
347.896 
343.977 
347.16 
347.254 
349.948 
345.83 
348.229 
344.07 
345.821 
347.578 
351.279 
346.751 
352.973 
353.489 
353.862 
351.071 
352.457 
352.674 
350.249 
350.675 
353.074 
352.019 
353.477 
352.334 
349.561 
353.921 
350.175 
351.339 
354.793 
350.852 
354.65 
352.558 
352.719 
351.379 
357.619 
352.499 
