ITEM: TIMESTEP
256800000
ITEM: NUMBER OF CELLS
100
ITEM: BOX BOUNDS ss rr pp
0 0.001
0 1e-05
-0.5 0.5
ITEM: CELLS f_temp1[*] 
338.462 
341.879 
339.276 
341.201 
341.559 
343.861 
338.936 
344.41 
341.869 
340.36 
343.208 
342.215 
340.508 
340.456 
340.792 
339.333 
345.853 
344.472 
341.586 
340.851 
338.829 
339.094 
343.294 
341.532 
340.985 
344.099 
342.725 
341.767 
345.33 
344.652 
344.327 
346.611 
340.36 
342.143 
346.241 
342.694 
344.876 
345.86 
344.22 
345.355 
345.826 
341.905 
344.576 
347.201 
345.834 
343.453 
345.484 
346.45 
346.167 
346.473 
347.129 
346.438 
345.459 
346.377 
349.958 
347.201 
349.049 
346.903 
348.447 
345.358 
345.958 
345.548 
348.56 
346.742 
349.334 
350.673 
348.811 
347.315 
348.277 
347.504 
346.08 
347.266 
344.814 
348.239 
348.857 
347.427 
348.96 
351.94 
348.835 
347.369 
349.591 
347.847 
349.962 
351.745 
347.871 
349.871 
350.304 
349.094 
350.016 
351.047 
352.141 
349.166 
351.666 
351.585 
352.943 
355.351 
352.063 
353.269 
353.108 
355.781 
