ITEM: TIMESTEP
669800000
ITEM: NUMBER OF CELLS
100
ITEM: BOX BOUNDS ss rr pp
0 0.001
0 1e-05
-0.5 0.5
ITEM: CELLS f_temp1[*] 
341.522 
342.586 
343.564 
336.596 
339.684 
339.722 
337.908 
340.333 
339.014 
340.141 
338.151 
340.571 
341.672 
341.384 
341.657 
340.16 
339.974 
341.753 
337.465 
345.423 
341.343 
339.636 
342.49 
341.669 
339.764 
344.195 
340.718 
342.825 
343.828 
341.24 
345.502 
343.695 
341.819 
342.041 
342.926 
343.163 
344.997 
343.994 
345.571 
347.135 
345.116 
343.676 
348.432 
344.676 
345.266 
343.095 
340.393 
345.894 
346.219 
347.085 
345.235 
344.923 
347.687 
347.756 
348.217 
350.384 
346.246 
348.742 
347.031 
347.413 
347.308 
348.621 
344.657 
344.282 
350.535 
347.341 
349.224 
349.481 
349.475 
349.217 
347.335 
350.782 
350.497 
346.863 
344.672 
353.628 
350.144 
349.738 
353.152 
351.444 
350.842 
350.901 
350.493 
351.853 
349.361 
347.574 
353.213 
347.88 
351.397 
346.543 
348.082 
352.111 
351.62 
351.84 
355.284 
349.669 
353.713 
352.102 
352.803 
347.523 
