ITEM: TIMESTEP
631000000
ITEM: NUMBER OF CELLS
100
ITEM: BOX BOUNDS ss rr pp
0 0.001
0 1e-05
-0.5 0.5
ITEM: CELLS f_temp1[*] 
340.579 
338.223 
341.417 
340.171 
341.623 
340.75 
344.879 
344.989 
342.104 
340.224 
342.663 
342.751 
341.836 
342.629 
342.465 
341.244 
343.965 
343.934 
341.465 
345.27 
343.088 
345.203 
343.08 
343.893 
345.15 
345.327 
343.372 
345.221 
344.333 
343.763 
343.624 
343.912 
344.199 
344.998 
345.875 
346.775 
345.558 
347.548 
344.086 
345.59 
347.846 
346.706 
343.962 
345.854 
345.576 
349.943 
349.292 
348.026 
348.649 
345.275 
347.094 
345.334 
346.077 
345.281 
346.71 
351.749 
344.78 
344.08 
346.521 
345.25 
344.052 
348.99 
346.474 
351.074 
350.385 
349.424 
347.322 
347.697 
349.624 
349.943 
346.849 
348.061 
348.017 
346.121 
347.754 
349.896 
346.086 
348.246 
345.174 
351.244 
351.251 
346.944 
353.311 
352.786 
349.165 
351.661 
350.635 
352.168 
351.327 
352.385 
350.419 
355.956 
350.423 
353.444 
351.458 
350.839 
349.661 
351.816 
352.028 
350.237 
