ITEM: TIMESTEP
359300000
ITEM: NUMBER OF CELLS
100
ITEM: BOX BOUNDS ss rr pp
0 0.001
0 1e-05
-0.5 0.5
ITEM: CELLS f_temp1[*] 
343.669 
337.022 
338.336 
339.353 
341.804 
339.095 
340.642 
340.728 
343.819 
339.626 
337.15 
341.648 
342.023 
340.029 
343.089 
339.91 
341.855 
340.738 
343.629 
339.333 
343.704 
348.612 
342.026 
342.191 
342.992 
343.892 
343.851 
340.513 
346.332 
344.232 
343.178 
347.591 
340.273 
344.66 
347.57 
346.834 
344.657 
344.399 
342.11 
343.462 
345.328 
344.266 
345.351 
345.75 
349.611 
344.601 
344.289 
347.721 
347.863 
347.848 
345.517 
346.466 
350.751 
349.524 
345.566 
351.02 
346.661 
345.691 
346.337 
347.714 
345.322 
347.651 
349.946 
347.482 
350.462 
350.597 
348.898 
350.307 
347.347 
350.21 
346.04 
346.52 
352.493 
352.066 
347.815 
347.961 
353.079 
348.916 
348.21 
351.208 
351.458 
347.551 
352.185 
350.921 
350.47 
350.63 
351.842 
348.16 
352.581 
354.667 
353.614 
355.469 
356.424 
351.381 
351.451 
351.496 
356.075 
351.958 
357.212 
354.512 
