ITEM: TIMESTEP
351900000
ITEM: NUMBER OF CELLS
100
ITEM: BOX BOUNDS ss rr pp
0 0.001
0 1e-05
-0.5 0.5
ITEM: CELLS f_temp1[*] 
337.809 
341.793 
343.221 
342.285 
340.713 
341.419 
339.904 
341.288 
339.765 
338.048 
341.298 
345.483 
342.875 
337.564 
342.639 
340.49 
341.279 
345.527 
345.617 
343.075 
341.954 
340.643 
343.144 
342.123 
346.612 
344.423 
343.61 
343.784 
346.967 
345.53 
343.619 
345.289 
342.631 
348.574 
344.133 
344.727 
341.839 
344.425 
342.884 
343.491 
345.409 
345.883 
347.04 
342.087 
343.446 
342.612 
348.326 
347.453 
346.375 
347.362 
350.894 
349.099 
345.196 
343.521 
350.362 
351.603 
347.365 
345.457 
346.408 
346.635 
346.062 
347.466 
350.448 
350.509 
349.222 
353.857 
351.847 
350.357 
345.788 
348.808 
349.51 
351.116 
351.164 
350.821 
352.22 
348.737 
354.942 
350.267 
349.733 
352.287 
353.166 
349.52 
348.237 
350.819 
355.835 
348.802 
348.438 
352.286 
352.767 
349.654 
352.686 
354.442 
352.053 
356.14 
351.29 
356.31 
357.92 
357.398 
355.733 
353.306 
