ITEM: TIMESTEP
582700000
ITEM: NUMBER OF CELLS
100
ITEM: BOX BOUNDS ss rr pp
0 0.001
0 1e-05
-0.5 0.5
ITEM: CELLS f_temp1[*] 
343.835 
340.908 
341.842 
340.185 
338.433 
340.05 
339.99 
337.653 
337.681 
339.749 
341.507 
340 
343.831 
341.851 
341.613 
343.82 
342.288 
335.906 
340.599 
345.587 
343.383 
344.685 
338.767 
339.741 
338.361 
345.16 
346.439 
343.901 
341.269 
339.318 
342.291 
343.062 
345.395 
343.829 
345.131 
345.477 
341.925 
346.043 
345.69 
345.299 
347.596 
346.078 
343.401 
347.237 
349.083 
346.225 
347.297 
345.796 
346.254 
343.139 
346.954 
351.879 
344.638 
346.771 
344.509 
346.249 
349.392 
347.085 
344.167 
345.521 
348.804 
348.029 
347.75 
346.187 
348.831 
351.039 
349.755 
347.264 
346.727 
351.335 
348.833 
350.81 
350.284 
349.189 
354.111 
349.266 
350.493 
347.291 
352.619 
348.586 
353.025 
350.185 
348.328 
351.59 
352.349 
351.166 
353.153 
348.408 
352.12 
352.931 
350.949 
354.237 
351.682 
349.183 
351.665 
351.512 
350.082 
355.872 
353.219 
353.342 
