ITEM: TIMESTEP
178800000
ITEM: NUMBER OF CELLS
100
ITEM: BOX BOUNDS ss rr pp
0 0.001
0 1e-05
-0.5 0.5
ITEM: CELLS f_temp1[*] 
341.475 
338.831 
342.64 
340.079 
342.099 
336.415 
337.592 
340.418 
342.603 
342.424 
339.076 
339.398 
343.608 
340.838 
341.214 
341.723 
343.014 
343.223 
345.743 
342.4 
342.183 
342.72 
345.154 
342.398 
341.826 
344.542 
340.868 
343.144 
343.912 
343.052 
344.786 
345.9 
343.115 
345.493 
347.823 
345.691 
346.928 
346.778 
344.28 
347.174 
344.087 
342.005 
345.152 
341.978 
345.213 
345.101 
344.299 
344.896 
348.369 
348.543 
348.87 
344.442 
348.51 
349.877 
346.961 
347.953 
348.204 
344.348 
349.681 
348.284 
353.461 
346.17 
347.66 
347.398 
351.037 
345.643 
344.738 
350.836 
345.785 
352.606 
351.942 
348.468 
349.641 
350.502 
353.738 
349.842 
349.503 
353.386 
351.301 
350.309 
352.82 
348.512 
352.644 
348.184 
351.089 
351.343 
352.827 
352.879 
349.903 
354.35 
351.39 
355.513 
351.107 
348.974 
354.187 
356.381 
355.431 
351.69 
356.42 
350.5 
