ITEM: TIMESTEP
478300000
ITEM: NUMBER OF CELLS
100
ITEM: BOX BOUNDS ss rr pp
0 0.001
0 1e-05
-0.5 0.5
ITEM: CELLS f_temp1[*] 
342.658 
338.468 
341.417 
343.245 
339.97 
339.674 
340.675 
338.715 
339.961 
337.965 
342.523 
342.921 
337.133 
341.449 
339.652 
339.957 
343.04 
344.205 
340.698 
340.062 
342.417 
345.484 
344.013 
343.381 
344.987 
342.757 
342.678 
341.49 
344.383 
339.459 
344.233 
345.202 
347.455 
343.312 
344.977 
346.616 
346.432 
345.701 
342.259 
345.67 
346.325 
344.955 
347.002 
344.55 
345.581 
346.072 
348.379 
347.122 
347.115 
347.958 
346.47 
344.789 
346.325 
346.523 
348.29 
347.454 
346.059 
349.034 
346.016 
346.512 
346.638 
349.639 
350.27 
343.488 
345.121 
349.919 
348.558 
346.511 
349.961 
349.971 
345.894 
345.16 
348.559 
350.662 
349.489 
350.869 
349 
352.105 
351.285 
349.259 
352.637 
347.152 
350.586 
350.374 
351.905 
351.484 
349.156 
350.097 
350.499 
351.676 
352.058 
350.562 
348.222 
355.234 
349.233 
351.504 
355.845 
349.21 
353.671 
350.562 
