ITEM: TIMESTEP
389100000
ITEM: NUMBER OF CELLS
100
ITEM: BOX BOUNDS ss rr pp
0 0.001
0 1e-05
-0.5 0.5
ITEM: CELLS f_temp1[*] 
340.236 
339.549 
337.193 
337.918 
338.992 
340.931 
344.834 
343.655 
337.425 
341.517 
341.748 
343.94 
343.259 
342.049 
341.899 
342.476 
337.236 
342.19 
342.905 
344.044 
343.93 
339.893 
345.308 
342.541 
344.208 
344.298 
343.216 
341.4 
342.513 
340.804 
344.746 
344.163 
343.059 
345.15 
342.936 
346.317 
342.66 
342.598 
344.089 
343.096 
344.252 
347.163 
343.93 
342.094 
346.202 
346.58 
346.709 
343.269 
346.583 
341.905 
345.667 
340.877 
350.397 
345.293 
345.442 
345.666 
350.14 
346.646 
345.596 
347.208 
345.28 
345.597 
346.509 
348.22 
346.284 
351.166 
350.193 
348.107 
344.666 
347.12 
350.128 
342.546 
348.361 
346.057 
347.996 
345.45 
345.631 
348.618 
347.087 
348.611 
349.886 
351.567 
348.952 
348.831 
350.124 
348.269 
348.953 
349.32 
352.317 
349.137 
344.464 
347.585 
350.738 
347.607 
352.652 
353.478 
356.074 
350.892 
352.204 
351.332 
