ITEM: TIMESTEP
468800000
ITEM: NUMBER OF CELLS
100
ITEM: BOX BOUNDS ss rr pp
0 0.001
0 1e-05
-0.5 0.5
ITEM: CELLS f_temp1[*] 
342.257 
341.069 
338.868 
339.318 
340.747 
340.264 
343.404 
341.505 
339.401 
341.651 
338.778 
344.929 
342.459 
342.441 
342.222 
338.111 
345.491 
343.631 
341.152 
343.402 
345.223 
341.676 
342.358 
342.067 
344.929 
344.705 
340.417 
345.869 
345.173 
346.128 
345.028 
346.715 
342.452 
342.149 
342.964 
345.172 
344.024 
348.403 
344.909 
347.369 
345.365 
350.543 
345.679 
344.179 
345.966 
342.906 
345.481 
345.692 
346.913 
346.211 
346.498 
348.052 
349.255 
347.608 
349.645 
349.95 
346.515 
346.275 
345.425 
344.887 
346.181 
346.44 
348.06 
344.261 
350.974 
349.623 
349 
347.182 
350.187 
352.101 
348.151 
349.782 
345.2 
350.835 
348.55 
351.356 
349.226 
347.381 
352.345 
345.948 
352.16 
351.464 
350.834 
348.622 
350.973 
350.336 
350.186 
352.167 
348.89 
350.433 
353.212 
351.585 
352.616 
354.08 
349.375 
350.596 
349.517 
352.203 
356.675 
353.591 
