ITEM: TIMESTEP
149000000
ITEM: NUMBER OF CELLS
100
ITEM: BOX BOUNDS ss rr pp
0 0.001
0 1e-05
-0.5 0.5
ITEM: CELLS f_temp1[*] 
338.067 
339.651 
340.972 
341.577 
339.02 
341.178 
345.269 
339.113 
340.055 
341.841 
339.488 
343.821 
341.726 
340.952 
341.803 
344.082 
339.306 
342.468 
342.564 
341.569 
344.957 
344.637 
344.141 
344.413 
343.376 
346.55 
345.535 
346.572 
346.471 
345.033 
340.999 
341.092 
346.437 
344.465 
344.745 
348.452 
345.826 
345.386 
342.117 
344.007 
345.247 
346.384 
344.592 
345.563 
346.112 
346.467 
341.442 
341.445 
346.733 
348.398 
344.982 
346.936 
347.443 
348.737 
351.238 
347.449 
341.421 
346.626 
347.132 
345.849 
351.076 
348.676 
349.469 
349.293 
350.111 
345.812 
350.519 
350.677 
353.027 
353.013 
350.023 
351.486 
348.712 
349.46 
352.814 
347.806 
348.33 
350.959 
350.994 
348.924 
351.175 
353.124 
348.729 
348.818 
354.391 
354.227 
351.804 
352.857 
352.008 
351.569 
349.623 
352.513 
352.787 
352.657 
353.465 
351.899 
352.406 
353.127 
355.334 
352.702 
