ITEM: TIMESTEP
543900000
ITEM: NUMBER OF CELLS
100
ITEM: BOX BOUNDS ss rr pp
0 0.001
0 1e-05
-0.5 0.5
ITEM: CELLS f_temp1[*] 
340.332 
336.188 
339.188 
339.861 
342.169 
341.507 
341.632 
341.477 
342.201 
340.965 
339.251 
338.835 
343.519 
342.787 
337.354 
341.374 
342.599 
342.771 
341.058 
342.558 
339.409 
343.862 
339.218 
345.638 
346.642 
342.307 
345.063 
339.687 
342.159 
346.447 
349.119 
343.791 
343.93 
339.981 
341.402 
339.355 
341.304 
344.144 
347.485 
346.535 
343.068 
348.663 
343.525 
341.48 
343.051 
344.265 
346.435 
346.6 
343.811 
344.685 
349.475 
347.913 
347.464 
344.252 
345.541 
345.813 
345.332 
344.642 
350.24 
348.379 
347.658 
348.896 
345.419 
347.265 
349.104 
345.972 
351.64 
348.404 
351.966 
348.645 
348.959 
350.126 
349.905 
346.302 
348.944 
346.777 
350.071 
349.187 
351.209 
347.793 
351.782 
345.108 
352.185 
350.729 
351.912 
352.329 
350.836 
350.245 
351.094 
356.526 
348.239 
356.402 
353.602 
350.739 
351.849 
353.645 
352.52 
348.477 
355.279 
353.261 
