ITEM: TIMESTEP
27000000
ITEM: NUMBER OF CELLS
1000
ITEM: BOX BOUNDS ss rr pp
0 0.004
0 0.01
-0.5 0.5
ITEM: CELLS f_temp1[*] 
283.794 
310.126 
289.444 
299.368 
286.88 
283.561 
284.773 
305.946 
308.853 
313.328 
302.398 
307.719 
304.173 
305.194 
299.432 
300.354 
300.658 
309.283 
290.479 
283.061 
273.822 
273.906 
340.179 
268.721 
265.123 
279.926 
277.223 
283.685 
301.396 
304.89 
306.916 
317.621 
339.127 
316.136 
309.078 
329.072 
325.63 
322.815 
325.72 
325.186 
326.113 
332.966 
327.246 
326.581 
345.093 
330.503 
330.189 
356.051 
329.637 
337.599 
321.126 
321.298 
303.739 
308.554 
293.064 
314.809 
314.652 
320.978 
319.954 
309.663 
314.561 
315.271 
320.453 
317.183 
302.546 
307.145 
325.592 
303.954 
303.295 
308.752 
312.126 
318.899 
292.711 
285.338 
296.245 
298.238 
301.11 
309.711 
338.411 
330.256 
319.748 
319.249 
317.337 
303.978 
323.233 
312.743 
344.83 
327.442 
317.029 
318.579 
321.289 
321.639 
321.355 
313.711 
314.724 
325.182 
323.974 
332.533 
326.722 
329.613 
335.257 
309.222 
296.379 
314.068 
301.267 
305.643 
309.33 
304.559 
324.973 
319.663 
309.497 
310.229 
304.482 
303.398 
309.263 
304.559 
289.348 
334.496 
303.87 
322.314 
338.094 
312.883 
314.965 
309.505 
288.427 
309.015 
321.497 
317.976 
333.222 
328.566 
332.423 
327.636 
305.464 
295.38 
299.259 
292.918 
295.632 
301.754 
297.067 
295.902 
313.812 
299.091 
313.654 
312.346 
320.269 
328.068 
329.273 
317.908 
317.651 
324.767 
316.361 
330.23 
343.822 
331.189 
327.312 
360.211 
332.885 
348.713 
363.17 
355.342 
342.292 
351.899 
342.453 
343.778 
339.18 
340.857 
348.676 
346.867 
334.374 
336.503 
342.113 
345.028 
348.914 
347.559 
337.478 
350.197 
347.198 
351.365 
347.284 
340.87 
355.843 
331.664 
340.159 
346.804 
349.048 
358.949 
364.109 
363.502 
361.118 
358.325 
354.774 
344.924 
372.79 
376.05 
374.012 
367.565 
363.13 
364.08 
370.924 
348.433 
346.802 
354.955 
348.019 
350.416 
373.998 
367.434 
377.454 
382.383 
359.019 
351.792 
352.743 
351.01 
366.719 
367.715 
340.278 
332.105 
332.33 
351.224 
360.179 
355.214 
373.152 
378.568 
362.367 
349.66 
371.182 
366.615 
392.444 
363.885 
363.836 
363.352 
353.317 
359.382 
356.359 
355.881 
365.118 
332.221 
346.874 
357.637 
353.275 
350.962 
373.32 
354.834 
357.428 
322.999 
340.283 
337.504 
333.063 
334.381 
347.347 
342.808 
365.425 
354.373 
357.025 
342.601 
359.365 
369.04 
361.266 
355.392 
346.226 
360.977 
354.751 
353.616 
325.464 
357.503 
367.293 
358.563 
375.619 
390.071 
376.347 
380.479 
359.857 
369.767 
344.521 
358.123 
343.526 
341.603 
352.957 
345.981 
361.22 
357.406 
350.039 
349.804 
368.519 
355.878 
361.171 
364.99 
362.328 
365.893 
373.536 
377.99 
390.694 
373.342 
380.288 
372.013 
370.456 
375.353 
371.263 
370.81 
371.024 
369.939 
374.711 
376.89 
398.213 
389.83 
394.238 
373.401 
381.049 
378.623 
370.275 
362.041 
358.32 
365.204 
384.05 
381.289 
400.639 
396.543 
385.683 
367.264 
395.645 
397.055 
410.276 
377.289 
398.153 
408.313 
412.023 
417.528 
442.173 
398.376 
447.11 
417.982 
420.128 
412.006 
412.583 
425.385 
441.338 
422.762 
424.739 
410.744 
418.134 
415.705 
397.961 
392.27 
387.975 
379.585 
401.494 
373.945 
363.693 
390.865 
401.719 
383.197 
397.809 
403.556 
412.692 
405.552 
409.905 
386.412 
406.468 
383.826 
379.84 
389.324 
391.464 
409.34 
371.437 
396.547 
388.862 
393.909 
398.918 
413.684 
406.818 
392.534 
383.845 
428.107 
404.766 
413.03 
409.017 
393.551 
397.145 
397.953 
387.134 
391.829 
387.046 
386.139 
393.371 
377.932 
376.718 
372.292 
382.662 
385.657 
380.483 
385.359 
391.003 
374.457 
362.266 
363.11 
375.74 
387.378 
389.655 
396.319 
383.428 
377.388 
368.463 
373.429 
361.384 
381.973 
386.466 
343.544 
369.287 
361.213 
400.374 
396.072 
386.273 
392.651 
404.913 
405.865 
410.518 
378.513 
381.369 
386.832 
377.884 
394.922 
388.883 
391.018 
391.487 
379.345 
404.239 
382.226 
385.488 
395.255 
380.334 
393.255 
384.056 
389.445 
382.768 
358.19 
365.931 
378.677 
369.036 
376.863 
355.715 
369.48 
396.216 
393.753 
382.912 
381.348 
399.92 
375.462 
373.581 
385.322 
403.634 
382.157 
392.403 
401.076 
383.811 
372.715 
397.27 
382.224 
385.399 
393.59 
373.552 
402.67 
392.819 
386.903 
405.956 
404.41 
398.617 
394.257 
414.092 
394.089 
389.241 
390.846 
397.349 
385.241 
385.251 
410.529 
426.242 
401.224 
423.561 
455.337 
445.197 
429.3 
443.91 
438.553 
434.472 
448.064 
431.211 
451.688 
465.235 
453.483 
455.406 
440.065 
422.95 
430.931 
405.848 
412.235 
429.019 
402.817 
407.645 
428.014 
433.704 
440.19 
430.911 
419.056 
426.043 
414.93 
425.366 
423.412 
419.444 
423.93 
450.025 
443.43 
438.367 
441.458 
410.26 
414.565 
418.305 
417.225 
417.71 
413.614 
393.489 
403.713 
392.107 
413.591 
418.211 
404.805 
427.905 
422.901 
425.351 
419.197 
435.307 
428.125 
408.054 
417.745 
425.406 
426.172 
419.919 
432.347 
415.768 
406.907 
409.53 
411.25 
441.193 
407.525 
400.05 
391.321 
416.833 
402.038 
386.899 
412.477 
396.462 
425.921 
404.626 
409.734 
400.332 
405.37 
394.982 
397.897 
455.455 
431.11 
444.47 
410.222 
439.796 
436.524 
438.729 
422.868 
448.376 
426.267 
440.505 
401.659 
397.21 
372.919 
386.598 
398.608 
390.719 
386.917 
396.109 
368.605 
386.918 
374.331 
389.483 
390.151 
409.342 
397.637 
403.934 
403.332 
384.539 
383.101 
416.041 
391.654 
414.431 
406.48 
420.939 
384.25 
376.468 
409.031 
419.34 
411.415 
420.279 
435.864 
408.087 
401.938 
413.69 
410.474 
410.349 
429.384 
426.462 
398.9 
428.618 
435.499 
418.537 
442.644 
435.1 
426.353 
419.439 
469.594 
445.929 
445.543 
445.293 
454.353 
462.809 
485.637 
455.33 
444.686 
463.911 
458.818 
455.5 
421.921 
427.573 
437.161 
444.58 
446.347 
420.922 
462.097 
465.422 
418.328 
435.154 
451.039 
448.597 
461.71 
473.671 
451.775 
459.04 
436.176 
427.886 
443.569 
441.793 
442.071 
425.692 
426.973 
440.751 
436.553 
419.341 
442.943 
453.653 
456.992 
444.048 
432.803 
435.417 
432.999 
408.947 
426.871 
441.699 
459.154 
473.114 
461.69 
452.556 
456.458 
462.273 
456.189 
438.434 
438.959 
434.468 
428.943 
426.71 
427.614 
439.899 
462.825 
468.078 
447.973 
435.003 
436.765 
441.622 
446.271 
432.979 
436.113 
420.154 
422.552 
417.975 
453.014 
450.151 
434.473 
469.916 
442.03 
450.463 
422.349 
409.408 
424.233 
423.812 
443.008 
450.351 
448.179 
442.529 
468.671 
453.635 
499.92 
475.363 
463.407 
458.939 
469.252 
464.795 
458.936 
459.842 
443.465 
434.043 
463.073 
471.864 
469.952 
450.037 
478.423 
458.233 
480.761 
459.793 
459.404 
467.429 
456.26 
431.645 
453.024 
456.105 
449.575 
470.464 
450.245 
447.132 
437.163 
459.195 
460.056 
455.133 
437.912 
445.671 
445.304 
471.239 
475.095 
440.993 
459.692 
470.202 
472.807 
446.386 
468.624 
466.976 
459.93 
468.33 
449.718 
471.235 
483.172 
471.892 
444.591 
453.964 
452.07 
449.019 
456.598 
446.023 
456.814 
475.709 
461.734 
447.253 
464.856 
449.614 
423.024 
416.541 
439.706 
438.158 
454.843 
447.433 
435.563 
444.863 
449.909 
455.349 
479.76 
437.189 
426.252 
441.026 
443.895 
444.747 
458.064 
452.487 
446.527 
467.851 
475.054 
429.176 
417.169 
432.474 
441.816 
447.04 
460.464 
443.111 
446.065 
483.317 
458.901 
456.792 
448.332 
435.621 
408.232 
408.065 
423.449 
431.23 
439.626 
441.149 
428.976 
423.787 
425.904 
429.818 
431.526 
447.046 
450.28 
432.087 
449.162 
433.274 
458.215 
434.912 
419.646 
430.711 
438.875 
444.457 
440.396 
408.901 
431.355 
430.802 
408.202 
405.434 
445.88 
443.48 
444.023 
432.827 
429.915 
431.27 
472.374 
405.634 
447.634 
430.545 
435.531 
430.051 
425.737 
439.662 
449.866 
450.212 
469.962 
455.876 
466.438 
438.867 
471.056 
443.506 
463.213 
466.771 
430.51 
450.638 
454.244 
445.839 
448.526 
458.617 
446.47 
466.229 
477.695 
470.66 
472.193 
450.688 
520.616 
472.428 
437.766 
431.644 
477.14 
473.962 
445.895 
451.403 
485.579 
462.348 
453.548 
457.893 
469.929 
488.792 
492.943 
475.092 
513.04 
512.794 
500.039 
451.692 
478.644 
448.827 
469.431 
441.646 
463.618 
457.403 
443.878 
458.676 
459.477 
447.07 
448.633 
484.589 
463.302 
467.265 
458.221 
472.157 
488.561 
462.816 
477.169 
484.704 
488.901 
478.807 
463.926 
457.336 
443.303 
505.764 
493.664 
486.005 
487.537 
510.883 
474.576 
489.716 
467.413 
447.601 
407.886 
420.64 
425.157 
437.815 
467.111 
483.983 
479.953 
473.629 
479.404 
527.434 
496.738 
489.151 
490.194 
504.946 
479.071 
506.045 
507.373 
496.322 
453.76 
517.865 
507.011 
470.559 
495.936 
471.708 
483.606 
496.514 
483.464 
510.556 
469.833 
517.165 
500.086 
496.459 
504.353 
504.413 
488.27 
506.482 
492.084 
481.866 
539.393 
471.997 
501.83 
483.776 
474.469 
481.039 
511.611 
505.592 
508.394 
489.519 
508.005 
489.769 
502.953 
488.766 
477.536 
511.531 
521.742 
515.668 
535.374 
490.803 
527.606 
494.606 
501.764 
483.486 
494.204 
503.563 
501.788 
542.173 
520.194 
476.761 
508.751 
493.378 
511.653 
489.74 
477.175 
439.679 
498.845 
488.439 
505.918 
498.178 
507.44 
538.057 
534.753 
505.246 
491.085 
