ITEM: TIMESTEP
6000000
ITEM: NUMBER OF CELLS
1000
ITEM: BOX BOUNDS ss rr pp
0 0.004
0 0.01
-0.5 0.5
ITEM: CELLS f_temp1[*] 
304.181 
279.655 
282.217 
290.193 
306.807 
307.749 
293.478 
289.155 
281.383 
301.184 
299.109 
288.976 
298.812 
306.113 
295.036 
295.439 
288.063 
284.113 
295.837 
313.629 
308.782 
306.246 
304.28 
309.437 
312.245 
291.994 
289.926 
311.383 
316.82 
290.518 
302.493 
291.42 
281.649 
307.731 
288.368 
295.779 
305.898 
292.975 
289.577 
293.819 
295.335 
291.557 
300.134 
292.385 
287.87 
314.082 
290.746 
295.373 
310.417 
314.9 
304.317 
309.316 
299.56 
298.12 
300.983 
303.154 
293.463 
297.622 
310.269 
305.578 
320.694 
319.219 
312.768 
316.34 
313.588 
306.854 
317.794 
297.03 
276.318 
284.33 
315.686 
317.605 
319.149 
325.528 
322.53 
310.504 
311.235 
334.242 
325.081 
317.175 
306.84 
293.585 
301.011 
298.845 
296.113 
288.558 
292.278 
287.641 
288.09 
284.379 
286.647 
286.536 
294.037 
303.235 
298.211 
308.742 
302.923 
278.631 
293.308 
294.081 
281.423 
295.769 
302.178 
296.522 
310.663 
305.105 
321.267 
323.617 
314.621 
303.624 
324.42 
318.483 
339.674 
342.475 
335.821 
340.885 
337.708 
333.706 
332.754 
308.586 
328.931 
317.628 
335.629 
311.706 
333.244 
327.324 
331.32 
312.733 
333.45 
342.89 
334.198 
348.377 
331.411 
337.742 
350.572 
338.519 
348.083 
342.146 
335.549 
352.241 
344.064 
333.928 
342.509 
339.52 
343.655 
360.115 
346.462 
323.848 
319.525 
321.684 
318.151 
324.29 
329.61 
328.011 
322.633 
344.871 
349.204 
347.302 
325.499 
318.358 
318.668 
310.303 
328.156 
334.26 
345.531 
338.226 
343.158 
341.089 
330.11 
330.846 
323.687 
327.689 
315.974 
336.824 
331.956 
341.488 
342.212 
335.023 
335.379 
314.853 
332.618 
332.865 
334.607 
324.184 
327.477 
354.231 
352.252 
357.772 
365.33 
356.156 
374.114 
369.741 
354.711 
356.254 
337.43 
358.164 
354.295 
358.859 
355.481 
381.139 
350.153 
362.894 
360.944 
378.803 
363.002 
367.028 
368.892 
360.311 
377.726 
378.92 
373.629 
356.026 
346.958 
368.283 
355.389 
345.377 
350.672 
340.457 
345.794 
350.464 
342.328 
361.601 
350.392 
340.299 
347.226 
346.878 
335.883 
391.287 
371.569 
382.428 
373.709 
366.617 
373.725 
352.63 
359.01 
356.824 
363.895 
357.677 
358.541 
352.482 
354.609 
359.619 
359.255 
350.394 
360.07 
356.885 
352.308 
350.718 
360.001 
359.263 
375.816 
378.844 
351.591 
362.156 
377.615 
348.859 
356.916 
357.426 
368.964 
355.915 
366.431 
361.872 
349.986 
365.088 
382.362 
370.183 
369.784 
388.555 
407.203 
359.492 
380.484 
389.262 
363.132 
368.989 
387.175 
356.034 
369.422 
371.898 
383.297 
335.6 
368.419 
371.007 
387.022 
371.081 
370.568 
385.843 
352.691 
359.439 
366.268 
356.919 
342.471 
350.679 
360.573 
337.369 
368.011 
366.803 
370.204 
377.308 
362.006 
374.961 
381.963 
388.383 
374.106 
376.017 
365.875 
362.217 
362.105 
350.056 
352.958 
367.637 
350.004 
349.753 
353.3 
326.964 
334.776 
340.32 
358.649 
346.246 
381.801 
350.349 
349.617 
352.46 
348.159 
386.444 
380.525 
378.786 
377.484 
392.566 
363.72 
376.42 
374.369 
360.907 
375.557 
392.21 
378.132 
370.683 
369.926 
359.655 
355.716 
370.485 
385.371 
403.67 
381.447 
394.677 
388.058 
398.298 
381.075 
383.519 
364.105 
397.191 
392.983 
380.576 
373.531 
382.578 
375.52 
371.079 
368.81 
373.908 
377.66 
376.91 
386.212 
377.35 
361.978 
381.624 
374.62 
388.901 
394.396 
381.247 
387.729 
374.101 
378.908 
370.301 
374.012 
384.083 
396.012 
388.984 
378.039 
365.814 
373.961 
391.074 
376.315 
372.12 
365.892 
361.905 
378.993 
385.721 
353.575 
367.024 
350.157 
375.462 
367.574 
391.416 
385.831 
393.409 
381.888 
386.05 
396.974 
364.819 
387.143 
373.422 
359.409 
380.999 
362.489 
365.928 
363.986 
363.734 
360.915 
368.717 
379.03 
382.252 
379.903 
377.405 
394.165 
383.874 
384.416 
363.471 
351.542 
362.878 
379.625 
364.643 
355 
397.791 
376.522 
363.599 
371.639 
364.919 
359.714 
353.63 
355.199 
364.33 
350.409 
382.649 
388.743 
378.642 
365.3 
367.543 
363.926 
375.99 
369.314 
358.515 
374.101 
363.746 
376.883 
361.195 
374.862 
349.33 
369.06 
357.707 
383.758 
393.811 
372.47 
392.442 
401.515 
393.685 
372.204 
397.996 
388.634 
389.865 
375.269 
377.618 
391.58 
399.698 
387.817 
400.001 
395.282 
398.414 
406.474 
408.987 
432.974 
405.437 
422.52 
426.274 
422.466 
413.48 
415.017 
427.912 
464.143 
402.526 
415.152 
401.89 
412.728 
427.479 
419.98 
419.622 
438.99 
408.263 
436.655 
454.712 
435.213 
419.519 
431.181 
427.139 
433.893 
460.913 
466.387 
452.111 
439.404 
452.881 
430.291 
425.183 
401.262 
441.866 
415.589 
429.896 
437.803 
438.46 
419.85 
374.749 
396.306 
415.039 
398.773 
391.324 
402.856 
396.697 
419.684 
395.036 
398.353 
397.894 
407.391 
397.22 
390.07 
401.155 
399.511 
387.339 
361.13 
383.661 
382.721 
392.727 
385.335 
383.498 
388.502 
407.513 
399.834 
391.723 
377.899 
397.239 
398.6 
409.041 
407.765 
412.9 
401.595 
377.414 
392.986 
390.147 
402.32 
415.85 
395.193 
411.81 
412.597 
392.479 
415.977 
416.598 
420.086 
419.065 
416.07 
424.742 
431.234 
422.618 
422.798 
408.363 
400.124 
421.117 
414.765 
406.52 
423.247 
408.495 
392.985 
423.735 
434.885 
435.673 
410.969 
441.279 
415.273 
414.458 
429.338 
416.175 
436.2 
456.914 
444.611 
447.124 
447.949 
433.775 
439.514 
437.311 
432.545 
412.052 
406.128 
401.339 
430.509 
438.876 
429.134 
423.363 
417.553 
409.662 
422.642 
417.776 
396.58 
420.395 
413.989 
419.215 
410.319 
403.396 
429.686 
434.778 
436.273 
448.673 
421.168 
435.519 
448.187 
429.547 
452.221 
448.795 
422.744 
439.649 
420.981 
436.341 
436.431 
427.279 
410.182 
434.673 
434.522 
453.147 
445.064 
434.039 
449.564 
438.901 
456.44 
454.093 
441.554 
425.147 
446.892 
418.905 
440.305 
424.115 
448.04 
447.453 
459.039 
440.737 
444.658 
419.707 
465.147 
456.119 
467.168 
439.816 
479.33 
483.615 
455.056 
419.972 
450.695 
481.246 
459.298 
467.478 
452.347 
446.26 
438.803 
455.073 
433.023 
450.547 
422.669 
437.717 
441.062 
419.758 
408.072 
399.786 
447.277 
425.469 
454.724 
428.399 
434.632 
421.864 
445.701 
422.818 
412.739 
402.456 
411.863 
414.339 
393.919 
404.994 
409.445 
453.142 
451.208 
416.933 
385.519 
409.783 
428.921 
401.449 
431.713 
427.668 
431.427 
438.716 
425.285 
462.772 
452.118 
459.186 
451.79 
462.438 
462.795 
426.382 
424.455 
425.922 
439.281 
424.765 
454.146 
426.289 
433.725 
410.094 
401.843 
381.15 
411.451 
407.284 
424.135 
440.84 
442.202 
420.66 
405.649 
422.126 
409.387 
427.688 
401.795 
437.558 
437.743 
445.397 
438.224 
450.468 
465.319 
473.041 
472.64 
437.949 
483.299 
462.641 
445.96 
431.351 
445.91 
423.477 
417.192 
404.049 
415.064 
424.367 
424.574 
445.134 
464.519 
473.475 
427.755 
464.256 
474.126 
460.468 
460.917 
456.53 
459.131 
464.635 
442.644 
437.893 
469.195 
441.558 
466.445 
430.234 
427.939 
424.613 
396.155 
423.914 
400.459 
398.755 
443.512 
406.285 
418.221 
405.243 
408.32 
416.27 
424.549 
447.702 
448.272 
442.159 
419.866 
425.072 
451.377 
435.763 
463.515 
460.089 
465.438 
481.76 
447.66 
439.271 
438.854 
458.7 
440.119 
445.845 
414.368 
432.645 
433.452 
422.267 
418.483 
422.495 
437.304 
448.247 
436.363 
438.152 
455.258 
450.44 
481.764 
444.586 
477.45 
489.186 
476.238 
438.455 
468.714 
452.508 
446.237 
456.101 
482.859 
469.813 
465.942 
456.612 
494.99 
456.56 
435.965 
448.598 
438.279 
445.851 
498.497 
444.13 
424.436 
458.461 
472.312 
431.611 
440.452 
446.978 
428.619 
442.558 
455.27 
456.787 
463.543 
459.579 
453.294 
481.347 
469.637 
449.194 
450.756 
442.205 
454.285 
457.133 
452.02 
438.549 
453.717 
480.546 
446.583 
462.369 
452.57 
454.086 
424.217 
437.798 
415.103 
440.157 
434.464 
458.286 
451.077 
456.61 
463.255 
451.353 
454.143 
463.164 
459.507 
457.31 
456.671 
458.095 
450.842 
458.924 
450.087 
444.209 
436.276 
458.04 
456.246 
480.437 
428.471 
474.652 
473.885 
443.175 
471.721 
475.469 
489.499 
487.708 
451.78 
475.022 
448.919 
433.563 
435.992 
454.833 
418.223 
439.218 
424.06 
476.409 
420.434 
440.188 
447.92 
457.184 
440.939 
421.209 
436.352 
439.637 
464.283 
466.522 
473.408 
481.182 
504.659 
471.287 
466.214 
488.276 
477.926 
466.364 
467.424 
512.456 
483.945 
497.857 
523.131 
558.791 
518.504 
516.924 
461.031 
476.402 
463.978 
438.329 
452.627 
470.416 
459.329 
473.002 
490.183 
476.765 
514.762 
500.561 
489.599 
465.931 
489.404 
533.648 
592.073 
574.107 
567.439 
525.468 
520.476 
524.588 
524.723 
510.059 
478.852 
478.517 
471.903 
450.221 
467.3 
497.285 
453.379 
436.802 
487.384 
483.465 
500.486 
490.423 
472.577 
467.237 
498.676 
465.206 
468.691 
468.466 
461.476 
508.534 
512.379 
503.517 
503.099 
502.39 
483.225 
478.338 
494.905 
468.908 
485.066 
490.604 
483.891 
563.917 
509.985 
519.547 
531.433 
498.096 
476.631 
536.669 
512.52 
511.14 
478.3 
499.727 
497.86 
504.232 
486.274 
492.645 
483.547 
483.688 
490.172 
493.392 
505.429 
484.695 
485.375 
488.805 
519.161 
487.207 
513.894 
499.643 
489.615 
504.017 
