ITEM: TIMESTEP
80000000
ITEM: NUMBER OF CELLS
1000
ITEM: BOX BOUNDS ss rr pp
0 0.004
0 0.01
-0.5 0.5
ITEM: CELLS f_temp1[*] 
304.135 
312.954 
309.925 
310.426 
294.029 
315.106 
312.86 
319.025 
307.627 
316.828 
297.243 
300.515 
290.076 
285.806 
285.494 
290.408 
303.796 
287.19 
288.709 
292.382 
275.666 
287.403 
287.851 
284.684 
285.86 
288.377 
291.162 
295.94 
290.775 
304.92 
306.276 
296.859 
300.733 
306.95 
292.16 
297.846 
304.381 
300.181 
290.002 
287.302 
281.862 
300.612 
300.03 
300.519 
304.411 
311.467 
303.693 
316.411 
308.741 
311.625 
298.987 
310.679 
313.376 
299.656 
317.068 
304.172 
302.239 
309.17 
305.885 
310.218 
307.432 
304.561 
312.514 
296.341 
302.544 
301.755 
293.333 
293.225 
307.839 
322.929 
309.763 
310.925 
306.713 
325.915 
316.533 
323.662 
320.443 
318.719 
311.63 
314.941 
306.327 
303.539 
303.64 
304.034 
278.88 
298.609 
300.216 
302.84 
296.168 
310.317 
307.26 
298.821 
307.666 
315.983 
300.079 
307.491 
311.093 
318.202 
311.005 
329.362 
330.022 
334.865 
318.906 
332.902 
325.439 
312.013 
338.247 
322.631 
317.482 
324.826 
339.9 
355.347 
324.36 
335.466 
334.228 
340.129 
339.443 
343.111 
334.413 
334.993 
340.741 
331.926 
339.259 
330.911 
317.96 
316.882 
313.223 
323.6 
319.466 
334.057 
322.149 
344.929 
357.685 
341.908 
325.471 
324.14 
329.169 
330.838 
327.05 
328.856 
327.878 
323.312 
316.994 
303.105 
305.579 
306.387 
301.127 
313.433 
322.272 
323.61 
316.181 
324.071 
322.609 
328.506 
313.323 
344.574 
318.49 
342.014 
327.067 
329.386 
335.647 
318.439 
343.706 
333.461 
316.202 
317.806 
293.483 
319.039 
337.719 
328.736 
337.894 
320.469 
323.115 
335.104 
339.654 
350.655 
353.536 
355.465 
356.643 
334.135 
352.986 
352.618 
320.867 
341.434 
339.829 
333.226 
348.013 
344.613 
345.202 
328.874 
339.098 
326.81 
306.391 
301.56 
315.376 
331.193 
306.927 
333.335 
329.988 
331.001 
336.207 
332.427 
348.578 
329.119 
327.755 
343.967 
348.485 
347.18 
350.031 
340.353 
332.931 
362.136 
360.343 
330.028 
355.937 
340.866 
324.685 
334.332 
322.15 
332.27 
329.042 
317.389 
323.918 
345.348 
328.796 
324.186 
325.096 
334.51 
337.832 
350.041 
355.92 
359.951 
343.537 
343.138 
345.72 
368.82 
357.169 
352.423 
368.622 
355.469 
342.094 
363.105 
352.863 
349.821 
349.735 
356.934 
336.625 
345.163 
372.107 
358.878 
378.297 
350.688 
386.995 
383.979 
382.388 
354.626 
364.304 
353.3 
358.585 
354.742 
330.904 
357.042 
358.043 
360.993 
363.222 
364.568 
361.14 
379.701 
379.068 
375.688 
363.954 
372.485 
392.085 
383.816 
359.854 
366.303 
373.073 
385.079 
380.883 
392.05 
367.01 
383.541 
384.865 
376.866 
371.133 
394.75 
378.724 
394.452 
367.433 
384.647 
376.538 
361.853 
368.686 
363.056 
357.197 
366.86 
368.395 
339.386 
352.105 
365.881 
370.615 
382.075 
378.992 
385.481 
391.734 
366.382 
361.836 
367.444 
353.906 
352.886 
371.919 
373.674 
377.586 
391.917 
384.824 
377.625 
382.586 
357.944 
392.898 
372.357 
378.718 
356.373 
377.366 
382.371 
377.072 
333.857 
367.911 
378.737 
387.303 
386.336 
394.185 
406.541 
369.005 
386.338 
390.506 
378.258 
366.47 
401.307 
393.258 
376.767 
394.656 
394.234 
397.933 
389.207 
384.106 
368.354 
365.735 
379.615 
372.055 
362.243 
366.177 
369.136 
419.696 
406.438 
398.169 
390.627 
367.409 
375.509 
361.745 
389.906 
408.197 
401.521 
402.515 
364.405 
366.352 
339.473 
363.148 
352.79 
362.016 
372.826 
371.18 
377.728 
393.584 
391.709 
388.175 
403.008 
396.865 
388.156 
368.861 
394.526 
419.516 
388.401 
395.372 
375.723 
395.052 
365.234 
427.94 
410.63 
402.955 
396.974 
398.962 
410.731 
430.325 
420.111 
397.869 
419.924 
419.33 
419.964 
374.152 
374.372 
381.516 
395.145 
402.688 
418.978 
430.823 
390.516 
418.1 
427.058 
382.087 
415.101 
414.721 
407.899 
419.825 
380.967 
378.896 
380.558 
382.333 
387.318 
412.171 
393.679 
395.287 
391.939 
382.761 
396.572 
407.088 
396.958 
399.34 
394.023 
387.089 
402.252 
402.476 
423.501 
434.073 
420.854 
403.548 
409.546 
383.867 
393.479 
407.246 
408.273 
411.497 
441.959 
420.276 
400.24 
427.713 
408.656 
394.226 
405.513 
406.038 
402.256 
424.027 
392.365 
398.07 
415.863 
411.208 
421.03 
424.292 
396.758 
405.362 
393.26 
408.12 
426.484 
412.127 
416.262 
391.56 
426.181 
435.66 
429.245 
414.767 
404.07 
429.591 
419.985 
425.357 
413.051 
393.892 
415.62 
414.871 
423.138 
408.718 
396.983 
408.623 
403.372 
397.116 
418.939 
398.843 
443.321 
416.324 
413.101 
436.81 
408.839 
413.653 
404.416 
392.13 
386.885 
404.513 
394.46 
424.375 
399.619 
400.458 
424.741 
393.939 
419.471 
424.336 
446.187 
446.89 
405.63 
378.142 
402.971 
429.713 
427.744 
399.76 
409.366 
426.396 
414.184 
425.608 
426.84 
446.68 
419.157 
423.423 
431.038 
423.45 
437.535 
433.051 
440.9 
424.523 
428.24 
419.341 
394.472 
408.531 
414.875 
409.923 
409.205 
407.463 
413.659 
411.479 
415.556 
408.476 
415.129 
433.206 
429.802 
444.345 
446.272 
441.663 
464.719 
403.231 
399.17 
404.225 
400.241 
399.971 
399.22 
398.054 
405.816 
380.187 
381.263 
383.049 
394.813 
400.728 
401.766 
415.93 
391.45 
400.518 
403.027 
396.442 
389.77 
405.364 
385.41 
406.04 
406.393 
395.283 
412.333 
400.843 
411.125 
429.51 
442.235 
427.424 
449.898 
438.462 
436.391 
418.335 
422.132 
400.229 
453.049 
432.427 
440.183 
458.703 
425.17 
418.243 
425.933 
410.378 
412.541 
389.083 
445.528 
431.451 
405.704 
400.91 
409.6 
408.542 
392.055 
400.414 
389.688 
428.729 
447.905 
445.481 
419.126 
403.507 
406.463 
418.509 
451.521 
400.299 
405.273 
397.606 
429.887 
421.916 
412.166 
439.313 
411.43 
425.081 
407.82 
425.267 
402.618 
406.791 
413.509 
390.421 
406.714 
412.13 
413.085 
399.177 
415.601 
396.535 
437.551 
420.428 
433.153 
451.799 
408.223 
392.277 
398.725 
451.231 
452.645 
464.607 
463.741 
454.756 
473.175 
456.064 
437.554 
449.803 
454.336 
473.764 
447.815 
436.958 
457.099 
431.545 
453.69 
454.023 
474.15 
447.876 
447.892 
449.279 
455.126 
448.949 
457.945 
445.797 
441.059 
420.187 
459.825 
442.668 
448.343 
443.066 
432.444 
434.515 
449.342 
443.052 
455.524 
455.757 
414.59 
425.539 
420.798 
432.35 
429.011 
434.229 
461.368 
454.064 
425.853 
406.537 
425.472 
457.021 
416.672 
419.834 
446.151 
432.36 
417.766 
403.823 
409.244 
424.542 
432.212 
440.503 
410.052 
477.563 
474.146 
450.89 
453.119 
433.815 
450.473 
424.962 
433.098 
458.311 
454.014 
426.127 
431.615 
415.237 
440.514 
422.856 
423.682 
450.056 
430.42 
402.988 
430.899 
426.65 
435.541 
418.543 
419.436 
440.457 
426.896 
428.531 
435.464 
442.896 
454.772 
439.045 
462.618 
444.545 
444.626 
471.664 
439.86 
469.475 
471.375 
437.419 
441.913 
475.915 
451.448 
441.917 
447.67 
426.711 
428.502 
425.139 
437.349 
423.838 
450.868 
426.219 
433.238 
434.893 
462.372 
452.73 
426.566 
431.637 
418.613 
442.236 
413.916 
424.494 
434.78 
407.527 
428.491 
416.573 
425.287 
431.679 
439.036 
425.047 
429.456 
418.968 
416.322 
411.243 
430.597 
422.419 
424.866 
446.947 
497.539 
470.93 
467.18 
440.191 
413.647 
415.593 
409.561 
415.092 
437.775 
482.635 
460.686 
465.665 
457.616 
471.012 
466.806 
453.019 
472.47 
461.694 
515.149 
499.206 
503.972 
492.11 
465.555 
445.297 
462.741 
480.057 
483.722 
464.602 
447.368 
466.832 
452.173 
443.308 
466.847 
477.425 
484.836 
493.857 
501.18 
503.129 
478.29 
485.783 
479.093 
470.417 
462.583 
485.524 
469.838 
513.044 
511.05 
486.982 
478.188 
471.494 
476.845 
491.704 
481.545 
468.111 
474.517 
486.071 
490.681 
497.298 
490.894 
487.648 
529.659 
514.708 
524.449 
492.512 
501.853 
515.545 
513.215 
500.641 
488.925 
503.359 
517.581 
479.382 
461.76 
494.5 
514.092 
494.705 
500.993 
487.255 
510.998 
482.69 
493.857 
489.527 
456.42 
488.106 
438.983 
453.267 
471.002 
474.34 
500.129 
516.666 
484.86 
450.331 
465.782 
454.598 
448.719 
454.816 
438.344 
525.129 
481.448 
499.528 
509.198 
512.271 
482.453 
507.873 
501.709 
500.598 
468.968 
485.48 
483.142 
458.384 
465.274 
468.056 
474.311 
447.964 
451.44 
459.957 
487.253 
477.089 
477.831 
468.664 
461.815 
480.261 
522.376 
492.304 
496.563 
466.651 
451.779 
450.52 
484.892 
487.576 
510.327 
507.559 
480.873 
503.136 
530.545 
474.911 
487.454 
479.592 
494.497 
502.002 
461.276 
464.979 
462.611 
501.774 
502.353 
481.563 
498.259 
496.81 
497.873 
474.642 
476.067 
462.144 
479.204 
451.193 
464.877 
511.53 
525.464 
484.641 
447.144 
436.296 
419.777 
444.44 
464.994 
451.892 
495.177 
485.146 
495.733 
485.101 
481.838 
502.672 
491.548 
518.369 
496.725 
493.857 
510.505 
500.192 
518.035 
489.962 
476.165 
484.825 
488.591 
448.241 
469.678 
450.415 
487.221 
483.613 
498.057 
474.928 
503.925 
480.059 
456.812 
472.804 
482.027 
491.59 
496.795 
498.393 
487.013 
491.016 
446.895 
490.263 
449.753 
459.434 
487.524 
442.61 
511.368 
513.499 
469.251 
471.913 
479.588 
465.722 
476.021 
486.063 
494.908 
512.851 
506.364 
484.604 
520.211 
476.51 
508.678 
465.434 
520.539 
530.361 
529.501 
528.294 
531.176 
545.59 
516.541 
