ITEM: TIMESTEP
64000000
ITEM: NUMBER OF CELLS
1000
ITEM: BOX BOUNDS ss rr pp
0 0.004
0 0.01
-0.5 0.5
ITEM: CELLS f_temp1[*] 
300.553 
297.141 
308.268 
301.455 
286.397 
288.55 
286.564 
299.695 
294.676 
290.695 
292.023 
281.073 
298.737 
307.696 
316.007 
311.943 
318.135 
311.017 
338.033 
319.464 
317.581 
304.967 
302.947 
292.473 
296.648 
295.396 
304.702 
301.702 
299.153 
294.194 
310.146 
328.519 
304.766 
303.641 
296.203 
317.467 
302.632 
294.719 
284.649 
300.422 
312.802 
306.297 
296.013 
302.569 
301.836 
311.838 
291.454 
314.089 
310.953 
332.581 
309.69 
312.214 
340.628 
332.322 
321.26 
312.906 
311.822 
289.824 
310.995 
298.795 
316.489 
321.806 
307.462 
311.557 
325.988 
328.303 
316.277 
323.988 
295.561 
309.186 
320.015 
322.63 
335.846 
324.332 
321.728 
328.24 
334.228 
342.548 
330.918 
329.627 
321.883 
317.539 
317.395 
320.113 
328.16 
322.613 
322.637 
322.374 
337.327 
321.623 
327.052 
323.748 
317.538 
336.351 
328.36 
309.042 
299.875 
308.439 
320.364 
341.814 
318.581 
351.991 
336.39 
331.15 
337.818 
321.763 
333.784 
318.023 
329.656 
332.887 
323.145 
345.676 
360.845 
309.095 
311.714 
316.399 
314.913 
352.76 
322.698 
350.913 
342.042 
340.331 
334.635 
328.67 
328.455 
350.035 
354.343 
327.589 
331.135 
348.938 
342.897 
332.561 
354.473 
334.707 
331.625 
330.118 
318.905 
311.625 
327.283 
328.325 
317.958 
344.454 
347.704 
350.772 
339.372 
345.292 
351.307 
353.049 
363.748 
365.008 
365.93 
363.666 
372.246 
352.504 
368.883 
362.484 
338.103 
359.956 
349.27 
355.158 
351.562 
352.148 
339.57 
339.437 
342.978 
332.496 
341.163 
324.75 
358.368 
371.042 
367.941 
363.273 
331.169 
375.682 
341.991 
344.854 
373.286 
359.046 
372.634 
350.591 
359.59 
327.857 
340.111 
345.924 
357.508 
332.604 
338.94 
345.607 
348.017 
350.918 
364.313 
363.123 
356.611 
347.321 
350.857 
358.226 
363.46 
355.252 
357.252 
353.333 
381.456 
364.863 
363.222 
377.659 
337.71 
332.459 
347.941 
326.928 
351.476 
347.073 
342.709 
377.664 
382.482 
354.654 
365.858 
378.626 
375.336 
370.047 
385.008 
392.406 
375.448 
356.639 
359.778 
338.7 
348.279 
343.397 
343.374 
344.949 
345.79 
346.961 
336.579 
364.672 
347.998 
359.4 
354.553 
365.064 
360.815 
369.036 
349.012 
368.237 
355.49 
360.929 
357.867 
356.835 
356.657 
370.439 
371.838 
369.195 
350.587 
354.538 
382.199 
394.081 
403.231 
379.398 
377.336 
400 
392.859 
391.012 
366.926 
378.566 
377.199 
354.278 
372.513 
363.642 
355.815 
344.399 
349.305 
345.334 
364.624 
342.254 
368.11 
392.956 
415.978 
393.455 
382.437 
393.737 
397.591 
416.731 
404.763 
403.006 
393.455 
400.615 
391.871 
390.501 
386.191 
384.919 
398.126 
411.99 
415.376 
412.738 
408.671 
428.301 
422.442 
411.551 
383.4 
374.278 
391.934 
387.475 
375.611 
395.024 
375.114 
374.118 
387.876 
379.439 
386.627 
379.886 
373.771 
361.854 
384.423 
364.062 
357.478 
366.476 
361.709 
376.557 
383.192 
382.973 
363.95 
372.192 
391.799 
418.588 
397.103 
385.344 
383.08 
368.385 
366.362 
371.34 
373.824 
374.765 
387.915 
381.297 
378.737 
367.736 
366.664 
380.142 
393.038 
396.818 
394.418 
374.526 
397.317 
385.677 
368.52 
392.927 
377.454 
402.917 
401.548 
393.618 
380.804 
368.309 
375.656 
385.758 
380.048 
381.728 
384.331 
374.532 
389.828 
390.571 
373.448 
385.057 
388.961 
365.346 
359.65 
381.853 
374.96 
375.453 
375.641 
380.067 
392.486 
399.516 
383.854 
373.607 
386.17 
395.406 
383.011 
380.991 
385.356 
389.086 
384.175 
376.759 
373.577 
393.343 
392.465 
406.055 
381.633 
385.523 
391.878 
376.456 
384.062 
391.292 
401.688 
399.358 
388.198 
392.103 
382.567 
384.296 
416.272 
402.244 
416.513 
420.864 
391.351 
408.077 
384.39 
394.529 
401.81 
374.172 
381.441 
386.848 
389.354 
379.628 
424.191 
409.866 
399.778 
381.193 
394.532 
407.166 
409.021 
413.482 
409.671 
417.287 
419.307 
425.153 
417.702 
415.182 
426.343 
428.92 
425.388 
421.036 
412.893 
401.403 
431.804 
407.822 
397.286 
431.563 
429.848 
407.4 
404.151 
403.753 
390.834 
436.368 
397.13 
388.411 
412.529 
397.568 
395.65 
394.571 
396.689 
401.305 
425.801 
421.367 
405.718 
421.456 
410.471 
443.732 
453.195 
432.42 
400.632 
393.343 
413.003 
416.386 
436.139 
400.582 
390.355 
404.296 
395.397 
390.52 
394.277 
406.153 
417.447 
414.259 
406.711 
407.273 
428.32 
393.108 
421.564 
409.046 
405.095 
414.521 
419.227 
414.033 
412.522 
402.488 
396.037 
405.429 
395.227 
391.07 
428.177 
422.373 
410.367 
434.172 
404.18 
378.447 
387.091 
391.727 
411.63 
408.747 
431.015 
426.865 
389.103 
408.426 
398.46 
383.476 
432.542 
420.333 
432.32 
450.91 
404.609 
417.263 
401.9 
435.204 
400.225 
439.957 
438.142 
404.681 
403.159 
412.372 
392.398 
404.195 
413.337 
392.4 
395.076 
408.377 
415.217 
398.272 
413.48 
429.803 
421.14 
414.38 
423.455 
432.318 
450.35 
440.675 
426.71 
432.338 
429.185 
415.163 
413.458 
401.351 
425.696 
417.176 
402.988 
391.426 
414.986 
383.715 
408.226 
403.804 
423.093 
439.75 
419.782 
421.694 
436.062 
431.648 
421.857 
407.26 
410.019 
406.795 
425.248 
446.319 
433.707 
390.273 
378.591 
384.064 
403.534 
419.093 
376.862 
373.961 
363.642 
388.947 
389.997 
375.537 
404.929 
406.308 
408.081 
426.284 
428.234 
414.323 
415.507 
445.68 
436.926 
419.111 
404.427 
421.023 
426.94 
419.979 
396.956 
406.288 
416.641 
404.28 
375.041 
380.08 
401.057 
402.148 
470.351 
409.71 
432.501 
446.208 
438.441 
449.921 
422.533 
431.691 
462.912 
451.345 
439.152 
457.725 
466.693 
467.052 
460.199 
466.3 
435.564 
470.722 
464.64 
455.509 
471.148 
446.908 
458.474 
435.359 
457.615 
452.196 
453.102 
469.672 
463.707 
452.983 
433.462 
439.126 
432.308 
454.677 
454.055 
444.69 
482.508 
462.788 
450.075 
473.007 
463.653 
441.586 
451.087 
455.305 
437.914 
457.748 
457.185 
461.323 
439.791 
435.087 
437.581 
443.536 
459.099 
434.838 
454.003 
442.129 
444.095 
453.392 
454.894 
449.485 
459.765 
462.294 
457.687 
435.485 
421.62 
455.487 
422.996 
429.43 
426.331 
421.51 
424.586 
410.978 
416.656 
393.103 
415.573 
402.696 
424.148 
438.905 
425.634 
428.973 
415.775 
433.058 
446.198 
433.57 
434.506 
450.044 
436.909 
440.655 
456.73 
440.394 
456.777 
417.094 
421.643 
427.626 
423.296 
446.155 
427.445 
431.556 
463.154 
440.783 
439.833 
419.496 
448.188 
405.998 
451.24 
457.837 
475.056 
451.547 
465.397 
457.252 
441.215 
457.176 
460.635 
461.563 
471.224 
467.17 
488.419 
468.047 
487.79 
485.854 
482.308 
464.259 
470.358 
489.052 
477.106 
496.121 
490.039 
473.673 
497.126 
474.414 
468.767 
475.808 
471.254 
456.42 
478.517 
466.71 
483.452 
450.271 
438.6 
421.245 
481.29 
482.905 
454.617 
438.251 
431.19 
441.026 
434.032 
455.317 
451.619 
458.962 
457.138 
443.965 
439.737 
442.46 
451.627 
460.544 
435.301 
428.81 
460.657 
428.034 
420.383 
432.518 
431.157 
443.382 
423.399 
431.042 
412.47 
422.907 
436.997 
434.771 
458.241 
430.021 
442.949 
429.108 
436.26 
436.162 
418.231 
456.558 
466.57 
444.41 
411.712 
467.224 
429.795 
429.67 
451.092 
427.619 
441.405 
471.917 
490.494 
468.002 
471.271 
460.111 
468.353 
438.574 
503.925 
460.306 
445.166 
473.159 
445.969 
474.552 
463.854 
460.648 
450.101 
462.926 
442.886 
424.466 
442.202 
441.358 
420.189 
415.765 
423.178 
373.693 
444.122 
412.85 
417.019 
430.43 
412.055 
437.254 
437.637 
446.332 
457.734 
485.783 
509.391 
479.517 
437.578 
445.81 
452.942 
459.906 
499.612 
468.591 
462.966 
481.729 
519.853 
480.739 
474.482 
485.116 
480.999 
494.761 
488.3 
477.709 
488.649 
524.39 
502.763 
509.518 
451.082 
481.747 
461.23 
440.383 
469.499 
465.673 
498.648 
469.006 
491.086 
480.888 
484.673 
469.21 
480.125 
518.175 
495.297 
514.888 
480.775 
494.904 
488.775 
488.888 
470.266 
515.187 
487.818 
467.883 
493.36 
491.232 
439.192 
496.172 
477.131 
472.796 
452.592 
485.845 
457.128 
464.997 
450.713 
469.336 
474.804 
465.045 
505.143 
471.37 
490.784 
524.494 
543.145 
518.188 
515.643 
490.525 
514.333 
495.717 
469.486 
492.23 
475.106 
465.067 
472.212 
491.854 
457.107 
481.488 
466.926 
452.384 
433.108 
428.162 
465.524 
439.874 
438.285 
455.31 
446.369 
439.449 
451.254 
447.715 
452.629 
460.924 
465.714 
464.298 
447.324 
442.015 
499.192 
463.303 
458.573 
483.249 
487.872 
453.785 
487.115 
506.748 
474.121 
456.19 
449.838 
452.069 
448.561 
447.256 
469.704 
467.497 
477.161 
458.67 
462.302 
459.768 
482.178 
471.61 
478.861 
475.426 
479.164 
493.914 
496.731 
466.049 
481.174 
477.481 
462.829 
478.615 
454.988 
463.798 
445.03 
504.697 
468.305 
498.748 
506.644 
490.724 
485.122 
502.219 
484.703 
471.595 
531.64 
524.473 
509.965 
531.974 
483.548 
442.25 
474.619 
501.136 
478.684 
467.073 
470.286 
478.063 
534.631 
487.033 
497.953 
474.677 
497.424 
505.578 
528.057 
504.929 
482.393 
479.421 
517.452 
503.61 
527.639 
475.936 
485.568 
527.781 
531.644 
527.712 
518.115 
526.618 
494.564 
496.029 
488.247 
494.523 
480.988 
487.739 
494.947 
470.806 
474.34 
507.817 
492.295 
509.935 
479.079 
469.988 
489.694 
481.309 
