ITEM: TIMESTEP
84000000
ITEM: NUMBER OF CELLS
1000
ITEM: BOX BOUNDS ss rr pp
0 0.004
0 0.01
-0.5 0.5
ITEM: CELLS f_temp1[*] 
323.539 
323.24 
330.026 
312.483 
332.627 
321.855 
308.583 
326.134 
311.772 
308.1 
310.132 
310.652 
281.34 
283.161 
295.583 
290.035 
310.919 
302.866 
318.197 
308.742 
292.144 
295.111 
317.152 
285.87 
295.99 
284.521 
287.928 
283.411 
299.554 
311.336 
301.496 
306.007 
311.954 
297.952 
306.364 
305.167 
299.803 
313.554 
310.282 
290.243 
295.243 
294.777 
294.307 
294.105 
300.253 
311.021 
316.211 
315.512 
310.568 
305.672 
306.183 
316.981 
313.971 
315.182 
346.313 
333.73 
338.196 
347.292 
326.489 
334.35 
325.932 
323.302 
308.789 
309.572 
305.48 
316.714 
324.781 
328.369 
330.723 
321.881 
332.149 
336.069 
324.647 
315.988 
307.852 
315.752 
317 
313.684 
315.831 
323.583 
316.118 
314.699 
321.956 
307.211 
296.422 
329.094 
301.131 
312.739 
318.859 
306.62 
303.376 
310.941 
322.736 
307.329 
306.475 
324.11 
326.597 
310.024 
291.53 
299.128 
310.957 
313.768 
326.814 
327.421 
314.099 
326.096 
319.067 
296.534 
303.958 
316.513 
299.699 
302.08 
306.793 
350.461 
357.554 
360.874 
352.048 
303.661 
298.964 
319.18 
328.755 
305.708 
315.365 
316.976 
336.85 
346.669 
358.859 
365.479 
338.951 
334.137 
348.503 
336.464 
321.694 
342.666 
338 
355.937 
333.603 
347.75 
328.638 
334.32 
326.11 
329.769 
334.795 
321.502 
320.907 
316.181 
335.904 
313.351 
327.811 
322.155 
318.025 
318.876 
315.988 
302.967 
339.96 
344.098 
325.102 
330.234 
353.93 
342.556 
363.156 
364.685 
357.649 
327.236 
346.527 
326.348 
329.498 
337.703 
327.318 
334.46 
336.822 
336.419 
352.165 
345.73 
335.269 
347.06 
342.488 
351.819 
347.552 
354.273 
345.801 
389.3 
352.561 
343.7 
362.275 
365.941 
366.516 
380.686 
365.255 
376.391 
371.216 
366.399 
364.855 
374.782 
379.377 
348.836 
350.631 
369.151 
382.587 
371.561 
360.811 
370.336 
355.753 
345.205 
354.409 
325.966 
339.858 
340.113 
354.335 
342.393 
347.911 
368.326 
353.871 
362.608 
344.626 
349.629 
355.546 
335.986 
352.661 
376.271 
373.722 
358.515 
372.006 
355.438 
342.445 
352.078 
348.623 
355.782 
352.081 
339.383 
351.017 
352.111 
357.118 
366.742 
355.786 
360.179 
362.554 
398.242 
392.7 
390.864 
397.693 
367.152 
388.398 
387.532 
391.598 
365.096 
358.644 
354.364 
373.103 
374.496 
353.09 
351.102 
364.862 
362.043 
367.012 
357.706 
357.76 
369.38 
369.781 
360.026 
356.111 
356.514 
360.797 
361.408 
356.186 
360.539 
376.936 
373.777 
380.475 
372.827 
352.698 
375.422 
343.669 
362.221 
365.886 
381.433 
345.204 
359.269 
353.56 
368.545 
405.429 
398.35 
389.518 
383.781 
361.59 
380.282 
372.625 
367.222 
366.099 
385.574 
370.674 
394.224 
375.699 
372.604 
378.518 
351.64 
360.022 
344.41 
355.573 
353.638 
357.629 
372.742 
360.262 
381.401 
362.732 
373.128 
355.61 
377.956 
360.901 
367.853 
346.446 
351.223 
368.951 
350.509 
340.55 
363.327 
349.53 
349.07 
356.926 
369.061 
374.203 
350.599 
374.814 
380.85 
358.875 
373.97 
364.709 
368.256 
375.023 
359.321 
351.279 
364.662 
373.021 
361.501 
369.74 
367.857 
367.367 
365.418 
371.587 
385.891 
386.687 
376.94 
384.07 
394.549 
381.956 
376.292 
365.998 
382.962 
384.361 
396.612 
392.335 
385.541 
395.167 
393.851 
376.505 
395 
378.035 
386.594 
384.353 
367.935 
394.557 
383.32 
406.746 
391.938 
387.326 
405.925 
380.209 
382.386 
364.377 
367.23 
362.21 
341.413 
368.601 
375.488 
351.385 
360.658 
370.669 
369.141 
386.147 
361.594 
363.306 
345.906 
376.088 
372.504 
392.448 
382.322 
350.204 
375.14 
370.445 
372.013 
374.192 
370.22 
370.404 
374.474 
396.784 
381.442 
409.648 
393.893 
394.153 
385.931 
395.396 
390.613 
381.873 
381.839 
367.011 
392.179 
357.896 
350.405 
362.552 
406.549 
383.278 
378.696 
428.167 
403.318 
383.033 
379.765 
373.884 
370.435 
354.492 
346.951 
380.474 
382.783 
381.792 
372.34 
382.221 
369.909 
388.862 
353.602 
390.186 
371.785 
386.736 
395.607 
396.11 
398.224 
389.571 
388.946 
398.633 
407.29 
411.69 
400.669 
377.77 
401.15 
407.124 
402.153 
396.82 
375.743 
377.711 
390.515 
413.534 
407.39 
398.016 
415.75 
409.205 
413.104 
432.006 
404.858 
417.247 
414.154 
414.913 
426.639 
422.209 
436.031 
428.436 
432.202 
446.209 
435.711 
417.796 
418.208 
453.878 
458.583 
437.361 
429.692 
440.522 
439.088 
413.188 
424.699 
439.809 
415.704 
411.196 
412.911 
429.362 
442.911 
416.204 
430.602 
444.917 
413.189 
416.332 
401.792 
410.569 
428 
423.749 
433.072 
457.89 
435.508 
427.133 
408.39 
411.132 
448.55 
418.569 
426.225 
441.243 
452.711 
430.258 
436.091 
444.781 
418.558 
448.903 
429.016 
422.222 
416.671 
439.135 
422.79 
432.714 
435.797 
431.436 
414.214 
403.332 
416.541 
415.324 
389.937 
408.732 
408.62 
407.221 
429.098 
413.841 
413.506 
403.147 
427.413 
391.515 
390.19 
418.643 
405.073 
407.77 
434.54 
413.099 
401.966 
412.52 
400.141 
428.412 
394.567 
394.738 
415.798 
408.281 
398.132 
399.079 
390.665 
420.039 
393.997 
414.961 
435.841 
407.146 
416.646 
411.856 
402.349 
404.747 
407.2 
404.824 
404.51 
440.428 
420.66 
403.867 
399.603 
413.611 
415.483 
401.756 
412.408 
424.793 
459.369 
410.391 
421.882 
412.839 
425.921 
421.57 
432.87 
400.229 
397.174 
396.936 
400.671 
435.598 
449.904 
468.059 
456.46 
470.926 
460.288 
452.419 
450.114 
456.582 
446.342 
435.829 
449.48 
425.393 
475.625 
450.104 
478.673 
453.308 
470.367 
428.087 
431.406 
447.167 
404.964 
430.083 
420.78 
419.733 
428.047 
437.396 
442.063 
427.139 
440.291 
430.693 
455.784 
451.522 
443.658 
430.302 
399.974 
406.826 
431.374 
465.7 
435.365 
457.777 
428.278 
435.185 
420.728 
444.006 
427.262 
421.21 
452.287 
430.725 
431.115 
464.223 
440.004 
453.446 
441.197 
450.223 
428.162 
429.936 
452.627 
444.832 
414.74 
434.153 
450.465 
416.638 
427.227 
440.111 
457.24 
433.659 
411.075 
437.171 
435.925 
456.561 
452.03 
437.698 
469.912 
478.416 
463.394 
457.645 
460.555 
464.353 
473.17 
432.103 
440.739 
413.378 
430.023 
434.732 
421.532 
424.959 
428.579 
421.174 
421.754 
451.257 
414.509 
422.598 
437.137 
454.836 
459.416 
439.255 
450.989 
459.503 
456.924 
457.981 
446.005 
428.939 
443.836 
430.899 
439.474 
429.419 
430.2 
448.877 
412.122 
438.322 
420.117 
451.943 
455.453 
438.51 
444.819 
448.009 
456.989 
496.964 
472.688 
473.03 
440.714 
445.353 
439.924 
417.722 
389.424 
433.811 
427.915 
430.449 
457.722 
451.934 
436.261 
460.473 
460.028 
458.371 
467.415 
465.163 
461.501 
465.912 
469.959 
465.267 
464.177 
456.688 
466.308 
458.467 
425.294 
437.307 
452.921 
443.18 
425.288 
470.115 
456.767 
448.231 
450.243 
438.75 
443.418 
454.11 
432.061 
432.025 
440.193 
450.127 
422.425 
441.158 
431.238 
456.491 
449.487 
471.441 
451.558 
420.617 
447.777 
465.354 
437.246 
468.549 
431.693 
458.448 
483.579 
482.644 
453.509 
457.218 
448.587 
450.605 
470.062 
462.533 
439.254 
474.591 
465.936 
446.929 
450.036 
447.06 
461.076 
456.705 
469.435 
467.563 
464.428 
453.029 
461.846 
466.819 
438.456 
444.4 
468.348 
451.302 
451.083 
470.96 
452.704 
445.224 
452.021 
468.198 
435.699 
432.802 
435.876 
447.136 
472.265 
432.794 
467.032 
474.415 
481.114 
471.112 
450.173 
425 
451.933 
477.24 
455.465 
450.928 
443.599 
496.213 
470.39 
464.488 
488.314 
468.203 
441.374 
469.13 
472.433 
443.1 
504.8 
465.159 
464.086 
458.911 
487.144 
480.169 
485.785 
456.991 
446.897 
459.103 
452.383 
438.207 
482.6 
479.801 
441.976 
447.41 
452.934 
479.57 
464.772 
467.333 
469.365 
459.497 
446.668 
453.244 
462.735 
463.498 
466.411 
461.29 
412.451 
421.093 
452.331 
458.472 
423.051 
438.587 
454.903 
413.811 
427.256 
474.693 
446.262 
442.887 
448.209 
441.078 
449.846 
442.738 
463.484 
451.299 
464.328 
456.591 
458.455 
455.483 
454.682 
455.772 
455.72 
491.638 
507.024 
491.928 
475.24 
460.356 
453.12 
429.572 
415.325 
457.443 
471.72 
465.211 
443.83 
440.047 
444.382 
437.033 
442.987 
461.165 
496.531 
513.199 
496.566 
498.421 
489.783 
478.371 
459.626 
433.273 
443.649 
457.615 
470.172 
447.932 
457.794 
443.247 
452.22 
468.811 
466.151 
448.464 
474.974 
471.547 
496.386 
489.461 
510.57 
526.07 
493.485 
505.866 
508.68 
502.864 
501.723 
494.703 
481.6 
520.864 
492.941 
472.349 
486.251 
514.074 
520.388 
520.41 
500.887 
492.989 
482.497 
504.691 
494.014 
485.982 
481.084 
497.336 
522.525 
515.16 
489.634 
513.468 
529.35 
513.551 
497.873 
475.931 
485.688 
474.481 
459.324 
449.092 
479.173 
470.408 
493.921 
480.049 
473.265 
466.463 
495.091 
485.965 
499.762 
470.518 
474.819 
484.951 
457.56 
466.854 
477.911 
463.01 
460.191 
434.546 
440.617 
462.597 
484.04 
472.913 
484.427 
429.945 
454.259 
461.378 
468.466 
448.552 
442.71 
426.385 
433.16 
460.025 
467.251 
470.269 
478.272 
460.205 
480.49 
441.297 
456.849 
483.603 
514.916 
491.733 
465.271 
464.828 
478.471 
494.092 
488.958 
482.849 
483.46 
497.167 
489.78 
498.692 
512.533 
495.67 
478.545 
497.312 
481.448 
504.025 
521.931 
526.431 
506.907 
