ITEM: TIMESTEP
44000000
ITEM: NUMBER OF CELLS
1000
ITEM: BOX BOUNDS ss rr pp
0 0.004
0 0.01
-0.5 0.5
ITEM: CELLS f_temp1[*] 
303.768 
315.731 
295.414 
305.088 
312.658 
308.143 
314.97 
315.124 
308.558 
313.325 
317.831 
321.879 
311.132 
305.578 
294.27 
305.098 
315.923 
299.314 
305.057 
313.828 
327.897 
295.154 
303.805 
311.409 
309.761 
316.558 
321.904 
314.862 
297.85 
289.284 
294.679 
321.786 
295.236 
305.664 
297.399 
306.704 
309.536 
285.391 
280.581 
293.061 
284.525 
296.281 
291.758 
296.136 
309.037 
315.001 
310.526 
317.479 
312.158 
318.384 
333.518 
352.192 
345.753 
347.589 
324.481 
333.025 
320.913 
336.934 
315.518 
341.588 
327.648 
317.902 
309.673 
322.947 
328.354 
307.041 
307.848 
292.826 
317.171 
307.111 
300.874 
313.47 
310.363 
309.788 
307.802 
311.916 
330.481 
326.043 
313.298 
310.423 
309.031 
313.058 
312.785 
312.509 
297.153 
314.079 
304.715 
309.036 
300.619 
310.754 
294.111 
307.63 
293.225 
290.529 
299.975 
302.03 
294.09 
300.941 
300.569 
308.404 
312.271 
308.587 
305.162 
320.279 
330.905 
327.71 
327.061 
313.085 
323.127 
332.313 
334.719 
355.595 
324.391 
325.162 
328.562 
324.396 
306.347 
331.889 
320.861 
312.417 
340.567 
331.207 
329.25 
337.213 
335.038 
339.763 
328.322 
334.111 
318.144 
305.488 
305.821 
310.436 
307.067 
308.853 
317.629 
322.734 
326.204 
310.174 
302.115 
321.887 
319.561 
348.047 
340.348 
342.064 
337.146 
344.128 
339.069 
341.099 
350.401 
346.597 
359.59 
365.847 
377.194 
378.325 
369.903 
391.866 
381.918 
366.932 
330.839 
345.681 
357.402 
350.628 
338.827 
360.703 
353.23 
341.974 
316.928 
335.97 
317.731 
340.175 
328.496 
321.909 
329.382 
324.784 
340.952 
340.646 
335.926 
332.752 
332.394 
328.662 
335.538 
339.268 
369.638 
321.766 
329.187 
331.142 
337.676 
329.123 
320.842 
324.426 
331.043 
335.601 
341.449 
338.282 
348.968 
340.952 
335.156 
341.772 
338.847 
329.496 
340.634 
330.771 
321.516 
348.632 
330.098 
327.613 
348.43 
347.836 
351.25 
334.358 
347.148 
339.555 
341.105 
337.627 
334.008 
353.45 
333.713 
356.41 
348.704 
335.599 
339.811 
327.784 
321.23 
320.194 
325.666 
323.641 
314.491 
341.654 
335.43 
344.853 
328.054 
331.585 
327.363 
350.742 
337.577 
332.314 
347.1 
324.141 
333.188 
337.36 
354.779 
342.337 
334.038 
350.174 
315.757 
331.358 
325.721 
330.964 
327.535 
311.916 
327.1 
344.04 
342.726 
351.002 
363.547 
346.326 
354.565 
356.744 
316.922 
324.013 
319.963 
333.189 
324.53 
327.37 
326.639 
340.113 
332.786 
325.102 
344.807 
334.684 
343.49 
322.392 
376.508 
356.717 
388.834 
372.055 
360.893 
349.54 
365.378 
372.613 
382.234 
384.525 
403.581 
399.617 
396.375 
393.441 
413.39 
400.174 
408.75 
401.994 
405.084 
374.373 
364.692 
367.682 
369.11 
369.339 
359.818 
359.607 
345.871 
346.323 
356.466 
373.826 
371.176 
338.327 
338.583 
367.321 
365.075 
354.835 
364.978 
345.953 
365.557 
378.098 
362.598 
368.989 
375.539 
358.35 
358.03 
378.179 
345.6 
349.456 
338.607 
327.986 
348.395 
328.595 
347.379 
347.682 
363.16 
354.166 
349.969 
350.88 
358.014 
367.282 
364.353 
363.524 
366.162 
375.372 
389.221 
388.885 
393.792 
401.536 
388.512 
375.41 
386.251 
391.65 
383.639 
373.878 
382.866 
386.066 
364.488 
354.518 
384.737 
395.051 
381.768 
386.751 
382.544 
389.894 
375.626 
369.873 
368.853 
361.433 
369.8 
392.018 
379.811 
410.2 
383.993 
386.744 
393.285 
407.126 
394.908 
417.455 
414.078 
405.704 
395.489 
397.453 
381.106 
390.316 
372.044 
369.59 
374.599 
365.754 
373.626 
376.337 
362.412 
366.276 
375.12 
389.284 
373.472 
360.15 
366.834 
359.746 
348.694 
372.11 
382.886 
378.605 
383.017 
381.896 
375.967 
396.437 
379.736 
393.847 
381.439 
390.086 
381.25 
373.758 
400.171 
390.197 
389.002 
372.762 
393.809 
390.862 
393.61 
390.439 
416.539 
392.341 
406.41 
393.347 
402.5 
395.428 
396.494 
401.336 
403.644 
404.479 
402.236 
401.208 
406.729 
392.895 
384.029 
390.143 
392.1 
376.525 
410.457 
398.115 
396.742 
386.147 
374.944 
383.552 
392.682 
389.077 
378.431 
380.459 
379.316 
384.146 
365.032 
391.393 
377.111 
394.485 
402.763 
395.109 
413.321 
397.872 
422.83 
421.749 
407.942 
395.851 
388.635 
370.94 
373.39 
366.054 
359.061 
391.715 
379.97 
344.762 
370.76 
346.441 
369.828 
370.863 
373.119 
369.283 
376.828 
381.275 
391.701 
376.783 
361.053 
380.37 
384.632 
379.097 
381.415 
397.945 
406.098 
416.395 
414.307 
402.805 
411.892 
423.544 
434.048 
439.543 
441.596 
437.827 
441.779 
444.196 
411.717 
423.446 
436.02 
404.708 
382.834 
365.889 
373.875 
381.943 
409.664 
410.867 
415.133 
423.902 
430.744 
430.745 
425.021 
446.98 
432.056 
426.263 
429.766 
399.895 
442.534 
423.898 
429.832 
434.92 
418.549 
425.837 
419.929 
447.665 
426.586 
444.216 
458.636 
428.113 
406.856 
384.796 
397.618 
404.004 
415.931 
447.757 
396.718 
419.993 
423.269 
414.134 
401.493 
431.233 
420.091 
423.508 
399.134 
390.358 
410.877 
422.714 
434.58 
412.338 
407.034 
399.288 
416.545 
408.558 
390.807 
419.066 
386.727 
411.229 
412.979 
402.838 
392.55 
387.709 
399.927 
417.914 
380.16 
397.542 
387.702 
404.639 
389.954 
402.449 
384.219 
388.048 
394.703 
395.506 
403.64 
410.693 
409.538 
426.682 
421.287 
425.87 
411.351 
434.936 
428.034 
436.754 
431.946 
433.015 
442.815 
442.771 
447.814 
440.091 
422.508 
433.41 
467.347 
453.568 
416.251 
411.535 
403.83 
403.416 
442.031 
432.144 
432.884 
448.788 
435.897 
423.958 
440.589 
457.109 
439.848 
438.61 
447.066 
438.95 
428.183 
431.752 
415.638 
423.326 
410.644 
436.046 
418.106 
444.274 
406.976 
424.768 
447.132 
424.805 
421.63 
413.151 
404.357 
383.294 
415.81 
431.004 
441.546 
417.361 
458.553 
438.709 
451.379 
446.837 
419.097 
437.697 
422.892 
464.128 
430.147 
432.092 
411.332 
439.614 
433.088 
444.835 
417.769 
403.38 
407.043 
413.402 
451.317 
431.89 
422.591 
401.795 
404.151 
438.25 
452.643 
390.81 
431.499 
427.183 
439.79 
418.744 
423.325 
438.228 
427.694 
428.094 
436.067 
459.558 
435.541 
431.01 
429.493 
449.436 
463.97 
472.704 
474.654 
488.033 
482.824 
464.805 
456.567 
459.368 
438.525 
430.665 
467.45 
470.295 
456.001 
442.742 
413.148 
427.255 
432.174 
446.226 
423.89 
467.826 
416.272 
445.45 
436.854 
434.391 
444.246 
444.875 
462.726 
436.824 
463.524 
481.297 
503.056 
483.921 
467.639 
454.775 
477.404 
472.307 
433.487 
469.955 
468.855 
463.059 
479.758 
464.055 
461.206 
475.386 
436.057 
429.443 
411.683 
431.045 
429.753 
443.762 
456.824 
444.513 
445.924 
450.571 
455.375 
462.16 
460.982 
458.829 
464.759 
415.943 
434.507 
441.984 
454.869 
469.828 
445.655 
445.14 
443.696 
476.953 
424.476 
430.305 
465.169 
460.521 
445.914 
461.008 
436.649 
443.755 
427.407 
439.499 
459.824 
447.309 
452.383 
433.73 
442.378 
420.312 
433.31 
427.872 
440.305 
446.339 
456.095 
436.54 
479.525 
449.91 
465.151 
417.947 
444.496 
452.944 
406.104 
421.982 
439.29 
423.747 
432.855 
424.373 
433.831 
443.679 
463.978 
430.384 
442.405 
470.203 
447.794 
465.89 
438.147 
474.783 
425.038 
445.396 
447.124 
417.297 
410.885 
411.38 
436.932 
457.581 
431.757 
434.784 
448.864 
434.318 
425.817 
429.418 
412.364 
438.04 
446.707 
465.175 
434.323 
414.094 
440.971 
461.724 
435.407 
453.066 
429.694 
436.637 
417.653 
435.539 
436.722 
443.292 
463.585 
465.288 
478.784 
473.589 
474.607 
455.841 
469.448 
482.117 
448.546 
463.254 
460.617 
460.68 
438.72 
466.319 
457.181 
467.491 
452.724 
412.819 
446.085 
468.895 
477.87 
458.197 
473.836 
448.92 
444.71 
469.859 
457.028 
428.742 
463.869 
468.588 
431.362 
460.002 
450.711 
461.56 
452.363 
464.57 
452.555 
432.248 
454.521 
461.396 
436.546 
435.587 
448.877 
468.645 
442.855 
456.448 
474.541 
456.926 
477.715 
474.396 
439.601 
432.878 
451.059 
466.489 
467.793 
479.141 
439.792 
454.195 
434.612 
446.919 
501.334 
494.661 
503.498 
509.916 
463.357 
489.131 
448.548 
443.091 
456.678 
480.569 
489.052 
467.993 
462.144 
464.555 
438.692 
437.512 
468.122 
458.92 
483.105 
469.58 
493.866 
455.532 
510.005 
488.122 
474.014 
475.337 
474.762 
480.112 
465.853 
472.254 
481.488 
478.255 
443.64 
475.268 
469.123 
466.32 
496.648 
457.118 
470.688 
493.836 
472.336 
467.057 
481.009 
514.396 
477.985 
474.882 
470.407 
469.226 
481.847 
473.007 
468.478 
509.192 
528.972 
482.533 
496.771 
478.824 
465.43 
475.905 
467.946 
486.425 
473.725 
484.294 
464.922 
455.731 
485.863 
511.347 
489.517 
487.514 
469.493 
475.528 
482.236 
475.153 
486.229 
470.921 
455.861 
459.742 
474.602 
440.824 
436.508 
452.435 
439.736 
446.593 
456.026 
444.828 
464.924 
472.841 
438.118 
469.824 
455.211 
449.267 
497.432 
476.536 
456.342 
486.412 
495.373 
497.647 
480.716 
465.181 
472.705 
505.068 
466.647 
468.266 
467.447 
468.982 
445.013 
443.738 
459.58 
479.647 
479.745 
495.851 
484.782 
499.464 
515.842 
498.839 
472.039 
512.964 
501.926 
483.694 
487.811 
505.266 
500.15 
493.432 
523.406 
485.434 
490.348 
489.36 
446.468 
435.912 
471.645 
452.156 
465.71 
438.982 
471.14 
444.883 
465.552 
472.487 
