ITEM: TIMESTEP
92000000
ITEM: NUMBER OF CELLS
1000
ITEM: BOX BOUNDS ss rr pp
0 0.004
0 0.01
-0.5 0.5
ITEM: CELLS f_temp1[*] 
302.689 
297.062 
306.909 
305.68 
292.58 
305.148 
308.924 
297.932 
294.971 
288.176 
310.815 
298.29 
312.014 
309.494 
298.525 
285.44 
302.403 
299.803 
321.509 
337.754 
312.467 
320.855 
320.516 
314.389 
307.45 
303.972 
307.598 
314.041 
309.876 
312.678 
323.138 
317.767 
324.421 
326.392 
336.041 
336.057 
310.713 
306.686 
306.304 
303.238 
319.657 
326.401 
323.058 
330.583 
310.701 
295.699 
304.973 
298.34 
299.868 
308.555 
318.484 
307.876 
308.336 
326.66 
309.546 
302.079 
313.59 
306.515 
308.024 
325.067 
313.39 
306.264 
302.849 
312.282 
293.548 
298.754 
315.844 
317.793 
335.58 
347.798 
325.392 
326.636 
303.123 
316.731 
313.36 
311.445 
339.27 
316.527 
300.814 
317.953 
310.235 
310.11 
323.91 
318.946 
335.332 
343.35 
337.042 
336.807 
338.406 
349.457 
330.631 
311.874 
325.399 
325.846 
326.341 
320.794 
322.55 
323.16 
339.48 
320.717 
330.653 
319.461 
330.676 
314.131 
309.23 
322.446 
322.713 
317.915 
322.802 
328.865 
318.639 
315.219 
315.475 
325.8 
339.971 
328.909 
337.443 
339.526 
343.684 
344.756 
343.623 
335.805 
344.19 
346.026 
334.21 
340.872 
345.039 
337.134 
328.556 
344.728 
351.568 
364.481 
351.809 
350.703 
326.214 
344.376 
335.389 
347.185 
341.699 
335.133 
338.369 
339.964 
339.678 
323.367 
331.891 
331.381 
327.606 
308.509 
321.031 
306.924 
306.55 
308.579 
317.318 
303.937 
306.981 
319.419 
309.241 
314.791 
315.703 
310.399 
313.253 
295.909 
310.456 
320.352 
326.698 
331.859 
321.485 
322.149 
324.63 
326.247 
318.253 
319.981 
304.218 
307.94 
301.849 
305.687 
306.503 
311.608 
309.705 
304.812 
308.768 
313.316 
309.674 
325.394 
309.252 
304.811 
319.841 
323.353 
333.639 
337.564 
321.801 
331.714 
346.978 
349.989 
348.321 
349.688 
363.246 
371.564 
362.187 
362.008 
347.807 
337.822 
336.734 
326.481 
352.33 
357.592 
364.391 
377.846 
377.932 
369.063 
376.038 
328.928 
335.255 
331.051 
330.709 
346.146 
334.368 
332.081 
344.833 
338.263 
359.478 
350.907 
352.596 
334.923 
358.056 
343.179 
357.979 
373.651 
366.346 
374.608 
377.07 
341.338 
345.121 
345.341 
340.679 
335.9 
361.218 
342.833 
347.703 
340.34 
361.404 
343.942 
345.614 
366.521 
345.727 
339.988 
335.486 
354.195 
339.68 
357.163 
368.639 
357.747 
388.146 
387.258 
388.416 
386.751 
378.793 
369.422 
359.024 
348.924 
350.18 
378.398 
376.661 
391.717 
379.687 
367.789 
365.707 
356.383 
358.001 
347.521 
359.938 
355.089 
394.586 
387.862 
387.138 
382.845 
391.577 
385.895 
385.504 
380.268 
385.226 
368.371 
365.01 
379.546 
375.765 
373.13 
397.007 
407.366 
404.28 
415.096 
416.109 
397.133 
409.51 
420.494 
402.013 
386.377 
379.044 
382.495 
390.949 
387.524 
409.288 
389.153 
406.656 
410.473 
406.304 
385.201 
404.512 
374.758 
378.372 
367.951 
395.379 
389.938 
379.714 
393.928 
370.998 
381.51 
402.044 
386.924 
413.369 
396.051 
400.3 
419.826 
408 
406.146 
380.495 
381.457 
400.437 
387.4 
400.584 
420.837 
402.124 
396.893 
404.602 
412.043 
388.543 
403.652 
398.755 
384.235 
396.362 
378.343 
363.302 
380.296 
383.553 
367.612 
365.74 
372.464 
347.9 
368.571 
372.768 
362.146 
363.539 
413.998 
395.892 
401.895 
394.085 
379.539 
399.862 
397.553 
408.519 
370.499 
389.7 
381.122 
373.73 
385.966 
383.393 
388.958 
397.219 
388.646 
390.683 
384.064 
366.775 
381.035 
391.42 
369.192 
425.626 
395.209 
366.272 
398.191 
380.316 
344.261 
384.94 
387.216 
385.72 
370.802 
379.132 
385.852 
388.279 
386.658 
369.81 
363.82 
365.72 
371.129 
390.222 
408.189 
375.667 
375.988 
368.459 
375.016 
394.076 
382.614 
388.449 
389.712 
377.258 
369.617 
386.017 
379.84 
375.194 
383.506 
376.602 
366.549 
374.93 
370.389 
363.809 
384.623 
370.716 
368.901 
387.001 
372.341 
385.402 
370.947 
364.884 
357.054 
379.543 
372.798 
384.767 
386.816 
391.473 
388.322 
379.929 
384.847 
369 
368.157 
363.067 
361.713 
355.69 
378.167 
380.194 
369.072 
377.398 
384.08 
368.925 
379.952 
379.474 
367.498 
376.009 
385.613 
379.647 
376.151 
383.962 
385.212 
388.989 
373.123 
374.352 
352.142 
369.939 
372.529 
374.115 
361.69 
377.813 
353.045 
359.937 
371.756 
364.408 
361.397 
365.224 
359.126 
360.754 
367.685 
378.744 
353.831 
367.53 
378.331 
379.427 
373.588 
389.626 
402.098 
379.666 
384.547 
398.235 
390.187 
413.476 
404.752 
392.376 
378.292 
385.982 
396.453 
389.433 
373.681 
382.264 
370.336 
380.009 
395.017 
385.018 
378.063 
386.072 
384.642 
397.562 
406.212 
399.744 
376.829 
362.08 
385.818 
401.368 
388.723 
364.886 
402.118 
375.931 
373.853 
389.525 
383.542 
382.58 
380.604 
380.34 
361.632 
382.722 
383.18 
384.364 
397.019 
400.849 
393.789 
386.279 
368.638 
370.801 
388.733 
389.914 
391.745 
390.946 
382.544 
397.282 
396.471 
383.106 
367.936 
377.515 
377.47 
393.007 
408.557 
400.501 
405.305 
405.057 
390.52 
375.605 
396.808 
378.706 
364.379 
371.36 
377.839 
400.162 
396.517 
373.163 
370.246 
390.444 
398.831 
396.359 
410.999 
414.731 
422.057 
411.659 
404.582 
422.508 
428.502 
398.106 
422.758 
407.567 
419.089 
406.522 
418.65 
401.636 
422.34 
401.402 
382.807 
416.115 
429.554 
427.045 
431.17 
413.721 
416.592 
409.516 
436.556 
408.182 
410.391 
436.222 
444.04 
464.292 
468.523 
432.382 
448.938 
429.647 
407.899 
406.544 
403.323 
425.725 
442.668 
439.929 
432.373 
411.418 
424.281 
409.955 
390.918 
428.967 
412.702 
413.476 
407.099 
409.026 
407.369 
421.14 
430.089 
408.196 
404.031 
421.873 
408.866 
405.907 
409.536 
399.258 
377.53 
400.703 
435.388 
429.161 
416.225 
444.483 
448.689 
445.001 
441.579 
441.185 
413.321 
433.629 
449.494 
450.269 
462.221 
433.632 
450.531 
422.995 
426.531 
440.87 
388.995 
413.109 
400.862 
409.642 
440.933 
441.237 
431.649 
417.34 
419.844 
432.831 
415.402 
436.809 
395.383 
416.083 
402.972 
397.69 
431.964 
453.146 
445.371 
426.844 
437.605 
430.836 
429.746 
454.281 
427.033 
444.236 
443.104 
426.63 
421.209 
409.847 
406.79 
422.885 
434.388 
427.4 
410.764 
416.199 
424.897 
421.019 
435.12 
439.384 
446.159 
438.253 
436.605 
434.607 
463.345 
457.344 
435.434 
449.357 
446.536 
450.246 
470.054 
453.927 
453.041 
458.604 
455.01 
476.851 
455.349 
466.977 
422.814 
437.782 
440.864 
463.054 
466.218 
458.451 
449.87 
422.771 
431.674 
458.657 
447.739 
460.02 
486.745 
478.862 
476.311 
487.27 
496.003 
505.119 
485.455 
470.19 
484.252 
470.973 
478.41 
463.682 
455.777 
433.338 
431.944 
439.797 
439.153 
448.967 
444.29 
445.928 
421.135 
463.768 
446.683 
460.489 
448.077 
462.373 
492.162 
440.501 
420.6 
426.592 
426.194 
429.534 
443.019 
415.807 
429.08 
457.092 
475.245 
479.088 
463.676 
465.088 
472.951 
458.393 
453.377 
443.161 
439.542 
473.812 
474.883 
467.408 
465.575 
456.647 
443.438 
447.034 
465.906 
459.361 
461.666 
476.82 
482.519 
468.597 
470.123 
451.403 
465.123 
454.668 
426.345 
475.21 
464.17 
457.624 
447.311 
463.865 
446.717 
453.611 
467.459 
454.556 
438.305 
498.245 
444.667 
432.887 
454.931 
431.465 
440.634 
456.853 
468.706 
465.141 
467.072 
431.82 
451.766 
461.605 
462.233 
467.584 
468.231 
450.593 
459.971 
452.94 
446.419 
427.082 
445.263 
493.34 
494.254 
460.32 
479.915 
460.511 
482.855 
484.866 
463.556 
451.369 
483.149 
465.494 
445.035 
454.725 
423.707 
472.154 
455.186 
441.368 
438.507 
474.299 
466.912 
474.299 
457.797 
444.069 
463.846 
420.417 
456.748 
448.23 
440.532 
438.771 
426.139 
452.559 
435.931 
430.708 
467.311 
473.899 
470.439 
464.884 
473.886 
489.571 
481.046 
496.897 
498.932 
470.409 
476.402 
481.717 
462.411 
477.117 
510.464 
459.621 
437.751 
436.312 
418.199 
452.888 
460.833 
465.011 
454.958 
453.798 
483.834 
477.848 
479.31 
457.995 
469.222 
466.25 
462.474 
429.333 
444.479 
439.781 
469.727 
459.709 
435.583 
463.581 
448.864 
460.645 
470.051 
453.951 
456.836 
450.851 
458.879 
451.783 
472.002 
467.408 
480.041 
470.879 
477.031 
468.03 
427.598 
471.991 
487.273 
451.897 
450.771 
466.67 
463.522 
450.163 
438.135 
444.634 
455.702 
467.916 
465.573 
482.132 
440.621 
451.413 
469.6 
453.796 
437.265 
445.82 
446.406 
453.391 
434.546 
452.638 
455.643 
490.209 
490.314 
497.663 
481.177 
450.553 
444.426 
463.323 
470.517 
468.68 
470.057 
441.305 
467.217 
451.603 
467.19 
477.498 
490.449 
500.174 
482.092 
500.543 
466.878 
474.588 
476.077 
490.459 
461.908 
474.82 
480.898 
481.794 
492.038 
503.324 
507.899 
485.757 
476.577 
490.354 
484.807 
503.87 
512.776 
530.636 
530.176 
492.418 
525.86 
503.72 
514.706 
515.658 
510.471 
508.873 
470.893 
486.064 
474.385 
497.896 
468.071 
466.049 
477.417 
447.364 
475.983 
461.525 
453.911 
479.904 
488.987 
490.832 
475.292 
479.849 
480.242 
490.419 
484.599 
493.544 
503.286 
463.241 
495.342 
485.076 
498.322 
485.08 
478.397 
473.021 
469.458 
495.759 
469.525 
460.551 
476.907 
457.178 
474.905 
498.863 
521.22 
502.956 
480.482 
505.857 
508.8 
513.423 
514.588 
491.081 
503.57 
516.508 
504.694 
