ITEM: TIMESTEP
86000000
ITEM: NUMBER OF CELLS
1000
ITEM: BOX BOUNDS ss rr pp
0 0.004
0 0.01
-0.5 0.5
ITEM: CELLS f_temp1[*] 
296.285 
301.956 
280.492 
293.969 
297.192 
298.918 
318.741 
299.325 
302.045 
299.075 
308.448 
313.545 
317.932 
309.672 
290.448 
299.969 
286.028 
291.254 
303.704 
297.46 
296.272 
294.197 
307.334 
297.97 
301.959 
301.765 
292.555 
296.321 
309.944 
308.392 
300.119 
305.021 
283.729 
293.518 
310.014 
287.783 
306.461 
305.351 
330.872 
327.129 
312.024 
338.889 
318.178 
316.11 
308.569 
299.696 
319.293 
306.742 
310.876 
319.781 
303.567 
326.207 
330.194 
329.87 
325.927 
321.278 
339.775 
325.253 
320.768 
310.934 
324.252 
318.795 
307.999 
301.653 
307.16 
318.092 
308.876 
338.816 
318.608 
323.593 
316.225 
318.157 
309.919 
304.495 
305.475 
309.783 
310.143 
311.146 
334.19 
342.958 
321.735 
326.15 
336.798 
318.755 
330.411 
337.06 
353.95 
319.47 
308.856 
325.241 
317.198 
316.712 
312.581 
310.781 
302.109 
294.491 
304.284 
305.009 
295.629 
301.866 
287.7 
302.317 
293.282 
304.65 
325.857 
307.151 
304.755 
306.962 
308.719 
312.286 
310.488 
318.921 
315.813 
313.003 
321.963 
310.555 
314.632 
304.839 
315.219 
322.229 
319.158 
321.599 
322.395 
345.678 
330.713 
327.592 
331.244 
343.136 
336.911 
332.237 
316.412 
304.764 
311.009 
307.304 
331.32 
307.242 
336.357 
317.1 
321.93 
330.914 
355.622 
352.401 
334.573 
339.698 
334.747 
351.922 
344.911 
336.412 
350.941 
341.548 
334.207 
357.473 
330.771 
336.95 
335.452 
330.156 
339.362 
324.05 
342.327 
356.428 
357.037 
373.493 
343.825 
336.706 
310.066 
315.637 
326.496 
318.187 
325.203 
339.291 
336.429 
337.378 
347.035 
323.588 
340.099 
332.288 
330.088 
346.915 
338.329 
353.065 
340.546 
339.624 
344.182 
345.593 
334.452 
334.814 
341.309 
327.78 
334.765 
337.412 
339.158 
330.993 
329.706 
324.217 
350.227 
343.82 
343.232 
374.596 
365.899 
354.204 
357.634 
349.633 
363.107 
367.217 
378.033 
359.762 
367.328 
357.983 
369.609 
364.492 
373.921 
363.329 
368.728 
375.79 
362.081 
360.342 
352.696 
354.525 
360.799 
367.94 
345.592 
367.184 
343.579 
366.146 
377.866 
386.637 
369.625 
397.538 
350.052 
385.059 
391.789 
384.708 
387.09 
380.715 
377.869 
343.486 
314.997 
335.569 
350.883 
341.273 
360.323 
358.409 
350.695 
371.056 
350.772 
369.645 
374.114 
361.154 
363.985 
351.487 
370.572 
367.63 
366.976 
345.529 
333.317 
360.956 
354.513 
370.27 
349.48 
373.089 
366.851 
367.25 
361.443 
378.1 
380.322 
359.247 
367.405 
400.727 
388.55 
367.247 
357.535 
364.614 
367.339 
381.672 
380.342 
378.626 
372.172 
394.946 
367.061 
377.609 
387.876 
374.88 
384.476 
372.834 
383.408 
390.995 
349.949 
365.341 
363.22 
355.482 
358.006 
363.029 
354.989 
358.375 
348.138 
383.586 
393.644 
389.665 
363.41 
368.137 
355.728 
344.282 
357.565 
354.537 
360.432 
354.713 
357.202 
357.792 
374.118 
364.762 
373.097 
375.762 
361.878 
371.717 
353.972 
359.431 
357.167 
375.107 
372.152 
371.264 
366.156 
375.69 
367.41 
386.659 
391.916 
367.912 
380.823 
357.216 
351.153 
388.34 
383.208 
366.417 
395.914 
391.473 
375.008 
383.196 
384.292 
388.234 
394.436 
375.905 
402.832 
415.747 
396.757 
420.926 
412.107 
419.335 
436.906 
418.439 
414.799 
432.026 
416.881 
375.652 
366.03 
374.747 
374.182 
356.488 
387.017 
385.832 
386.512 
405.373 
395.01 
393.901 
425.095 
364.473 
424.854 
432.637 
417.398 
411.114 
410.822 
375.788 
386.649 
398.83 
404.171 
382.277 
397.401 
394.928 
389.363 
401.841 
395.516 
416.556 
402.416 
389.949 
403.879 
397.71 
372.284 
394.187 
421.083 
435.562 
413.071 
398.648 
434.546 
395.952 
396.107 
406.605 
438.16 
431.071 
449.99 
446.55 
397.072 
400.434 
404.88 
363.518 
391.151 
394.487 
390.171 
402.212 
403.302 
417.106 
406.51 
438.261 
432.18 
413.51 
429.337 
416.866 
393.376 
406.956 
400.515 
369.345 
412.267 
413.748 
395.542 
384.701 
400.017 
392.776 
401.666 
401.098 
408.529 
394.719 
414.375 
401.41 
409.629 
382.999 
390.159 
396.305 
370.067 
367.807 
386.239 
381.371 
372.856 
378.546 
373.365 
370.599 
374.388 
399.448 
395.274 
425.64 
403.317 
411.933 
414.895 
390.3 
414.421 
408.505 
393.437 
372.02 
383.714 
408.877 
418.178 
397.366 
395.515 
412.382 
402.013 
385.605 
398.405 
394.223 
392.778 
403.944 
398.486 
416.944 
392.274 
408.367 
399.446 
394.521 
412.264 
424.021 
410.017 
407.1 
388.239 
383.376 
395.239 
371.115 
375.381 
371.7 
370.032 
377.192 
372.323 
372.623 
372.802 
371.874 
372.366 
371.185 
387.754 
370.988 
367.217 
357.739 
402.63 
395.442 
382.629 
368.134 
381.351 
379.532 
401.486 
380.973 
379.709 
375.146 
391.092 
398.607 
406.344 
406.874 
416.305 
409.488 
395.242 
397.502 
380.895 
396.096 
405.501 
392.904 
400.713 
388.635 
403.017 
385.306 
396.918 
421.278 
413.294 
423.933 
425.879 
429.324 
420.995 
416.126 
429.546 
442.94 
441.231 
435.356 
432.125 
422.706 
368.769 
394.8 
430.854 
416.678 
421.12 
410.375 
435.247 
411.703 
415.864 
429.016 
403.6 
425.686 
434.952 
420.224 
441.145 
423.085 
418.084 
415.416 
412.09 
431.395 
412.7 
398.604 
440.338 
438.767 
429.605 
432.271 
408.716 
426.244 
455.696 
427.474 
447.429 
431.348 
430.548 
427.826 
412.886 
389.947 
410.322 
397.551 
442.896 
422.858 
427.961 
432.416 
432.104 
408.353 
397.629 
447.217 
430.353 
410.015 
392.721 
424.957 
418.274 
447.101 
416.065 
422.231 
427.607 
425.989 
421.693 
443.584 
473.107 
428.938 
445.786 
415.81 
426.527 
419.914 
408.089 
431.246 
430.374 
414.768 
441.174 
436.266 
442.517 
433.317 
453.427 
441.353 
431.534 
440.693 
444.933 
443.906 
439.361 
430.656 
440.628 
445.074 
422.896 
460.295 
441.745 
433.904 
411.212 
419.905 
414.228 
418.379 
403.345 
430.307 
436.309 
412.531 
407.021 
413.659 
431.846 
419.917 
426.036 
451.959 
451.37 
441.292 
407.13 
404.684 
409.404 
422.24 
420.626 
422.096 
417.346 
411.681 
422.149 
419.72 
443.076 
440.503 
410.397 
481.248 
449.771 
437.3 
456.212 
459.81 
435.289 
454.679 
461.583 
455.515 
461.856 
464.208 
442.194 
451.455 
433.974 
422.247 
430.354 
411.012 
421.711 
424.605 
428.876 
418.183 
416.488 
435.753 
428.601 
418.957 
413.738 
419.422 
417.864 
410.633 
399.352 
456.433 
449.568 
415.8 
421.244 
430.862 
419.003 
418.994 
418.824 
439.37 
440.904 
428.09 
438.999 
425.276 
434.368 
446.62 
419.31 
397.093 
421.103 
421.415 
414.524 
408.535 
427.924 
436.612 
431.454 
430.763 
410.754 
440.468 
434.757 
441.254 
426.037 
432.679 
439.211 
424.554 
408.68 
418.377 
423.146 
415.643 
405.394 
444.862 
468.131 
470.808 
473.408 
453.504 
464.046 
485.875 
505.56 
480.497 
480.725 
460.533 
427.007 
445.112 
469.65 
470.365 
460.877 
458.841 
454.674 
437.316 
459.608 
468.621 
430.908 
439.953 
469.167 
467.053 
453.176 
421.016 
426.69 
450.542 
445.614 
451.499 
414.578 
458.796 
440.59 
459.944 
473.1 
460.846 
479.768 
477.191 
454.542 
450.234 
476.188 
459.645 
477.239 
457.75 
511.053 
474.848 
481.06 
493.116 
513.1 
493.524 
463.892 
500.608 
483.173 
506.753 
473.054 
493.335 
491.044 
493.629 
491.714 
465.349 
447.754 
447.91 
486.48 
491.874 
497.081 
495.96 
481.379 
455.593 
446.706 
463.707 
465.992 
501.143 
454.088 
471.011 
497.063 
494.421 
497.228 
484.059 
526.694 
523.019 
481.164 
498.876 
508.939 
488.265 
463.639 
480.288 
482.942 
463.325 
481.321 
475.078 
499.812 
481.288 
460.652 
447.364 
466.951 
478.743 
467.107 
481.425 
485.053 
531.088 
468.326 
478.713 
465.409 
468.052 
458.674 
494.762 
503.037 
466.315 
461.935 
469.492 
484.578 
490.018 
491.73 
484.438 
464.882 
457.267 
456.082 
487.381 
475.182 
472.468 
470.996 
447.863 
447.968 
476.046 
457.895 
452.314 
447.22 
473.458 
459.397 
456.124 
458.553 
445.317 
483.415 
438.66 
440.769 
478.737 
485.301 
468.679 
460.628 
449.378 
441.863 
468.328 
470.086 
467.696 
471.368 
442.961 
493.484 
451.314 
470.741 
473.016 
483.687 
473.836 
449.593 
451.156 
437.241 
450.069 
453.242 
420.032 
458.309 
476.775 
455.889 
451.098 
450.821 
433.808 
420.875 
433.754 
424.665 
436.753 
464.132 
454.954 
490.702 
524.091 
503.974 
478.107 
487.362 
499.584 
519.288 
518.223 
545.881 
572.06 
538.051 
533.861 
539.015 
521.812 
498.55 
516.99 
533.68 
514.031 
535.119 
504.648 
486.894 
510.135 
497.811 
484.599 
484.176 
462.177 
482.963 
467.032 
524.446 
468.382 
478.378 
487.711 
509.27 
504.168 
489.991 
494.139 
468.505 
489.834 
449.317 
476.201 
512.177 
504.572 
495.958 
481.826 
467.567 
483.538 
495.168 
481.906 
476.692 
504.05 
519.931 
489.487 
497.369 
475.843 
470.707 
477.612 
475.683 
491.792 
470.65 
458.271 
478.02 
487.094 
461.495 
478.955 
456.968 
500.723 
474.528 
485.594 
468.817 
462.66 
457.199 
477.482 
455.264 
494.101 
441.846 
449.165 
459.528 
458.362 
482.448 
475.388 
435.988 
488.334 
449.968 
491.523 
462.694 
461.422 
454.119 
480.695 
503.784 
468.64 
483.079 
479.935 
489.997 
489.476 
482.997 
509.585 
502.204 
500.446 
463.529 
495.978 
510.574 
546.042 
506.413 
498.005 
501.179 
503.7 
486.335 
514.665 
497.371 
466.095 
487.809 
512.835 
