ITEM: TIMESTEP
53000000
ITEM: NUMBER OF CELLS
1000
ITEM: BOX BOUNDS ss rr pp
0 0.004
0 0.01
-0.5 0.5
ITEM: CELLS f_temp1[*] 
298.369 
298.973 
294.417 
281.787 
298.759 
305.688 
288.577 
309.775 
294.285 
301.929 
294.044 
307.011 
303.234 
319.755 
305.141 
302.209 
300.964 
305.02 
299.082 
294.659 
298.289 
294.667 
310.256 
301.405 
309.903 
299.835 
322.014 
331.592 
323.072 
322.71 
320.131 
318.518 
318.167 
320.208 
315.606 
333.98 
331.505 
316.6 
337.598 
319.633 
319.335 
335.168 
317.172 
315.395 
296.909 
301.471 
312.426 
301.543 
300.454 
321.79 
306.534 
305.765 
304.962 
302.131 
295.227 
291.489 
302.866 
291.974 
285.328 
286.662 
294.107 
282.979 
287.156 
286.546 
291.659 
277.127 
275.449 
290.106 
327.941 
315.903 
282.064 
277.085 
288.918 
284.767 
280.362 
272.682 
287.926 
272.926 
284.049 
292.647 
279.052 
290.764 
297.127 
305.745 
308.496 
301.218 
312.27 
301.556 
312.857 
312.081 
326.271 
306.128 
331.186 
327.753 
331.036 
338.533 
330.312 
330.475 
330.852 
339.081 
318.719 
324.509 
328.64 
319.837 
316.609 
327.546 
324.775 
327.978 
352.3 
343.089 
337.637 
345.717 
349.054 
327.315 
339.623 
316.106 
325.609 
341.606 
356.622 
339.579 
343.021 
320.52 
328.546 
317.696 
313.483 
311.083 
313.543 
311.303 
328.804 
327.998 
322.259 
327.173 
331.668 
334.47 
324.655 
321.875 
324.658 
336.023 
318.826 
326.348 
341.636 
333.81 
342.669 
346.109 
347.735 
339.654 
313.197 
331.407 
326.423 
326.913 
335.655 
315.285 
320.732 
321.503 
308.347 
331.21 
325.613 
326.508 
355.246 
359.486 
361.415 
344.313 
342.412 
317.611 
320.904 
321.225 
316.546 
339.587 
330.874 
319.158 
326.648 
336.314 
349.369 
332.905 
344.241 
345.095 
359.12 
356.968 
347.43 
337.812 
352.518 
356.402 
355.758 
371.407 
359.758 
341.545 
346.344 
354.579 
356.228 
353.553 
357.52 
347.028 
334.877 
333.221 
344.964 
338.757 
339.583 
346.317 
349.599 
346.018 
338.072 
333.816 
336.582 
335.652 
378.029 
359.339 
354.665 
372.663 
389.854 
400.343 
384.447 
335.72 
339.194 
328.539 
336.328 
328.246 
331.558 
302.491 
311.695 
315.502 
309.818 
320.194 
321.862 
318.864 
325.527 
350.222 
357.713 
347.014 
386.483 
391.167 
387.033 
375.142 
391.552 
383.778 
379.22 
390.795 
405.876 
392.093 
405.303 
386.611 
411.657 
397.815 
413.507 
403.229 
402.138 
391.98 
399.639 
383.212 
375.992 
353.72 
336.018 
314.204 
318.07 
321.477 
329.057 
327.524 
333.395 
341.024 
352.266 
369.087 
350.315 
352.242 
344.737 
329.834 
333.186 
333.872 
335.655 
347.714 
326.207 
313.297 
326.696 
318.858 
347.094 
348.773 
345.234 
339.603 
346.961 
369.998 
341.894 
339.287 
355.642 
358.633 
365.812 
369.943 
371.301 
361.459 
372.956 
359.325 
372.692 
397.304 
389.049 
360.699 
371.508 
362.464 
367.412 
389.85 
388.125 
382.338 
387.655 
371.665 
381.785 
393.604 
399.776 
389.714 
407.934 
367.756 
400.75 
386.55 
395.627 
378.438 
365.668 
376.518 
358.057 
373.842 
391.413 
376.314 
380.908 
378.392 
395.948 
409.935 
410.569 
407.804 
400.585 
398.871 
401.255 
396.407 
377.456 
380.182 
375.906 
392.622 
396.877 
401.892 
406.171 
406.715 
392.395 
369.348 
400.319 
395.196 
382.845 
394.273 
378.526 
384.701 
398.852 
406.032 
421.53 
402.194 
415.032 
415.751 
387.729 
390.944 
389.297 
386.92 
373.467 
391.704 
375.183 
363.344 
403.983 
378.5 
361.125 
388.353 
376.599 
384.274 
371.614 
411.465 
381.202 
389.4 
400.816 
420.646 
408.107 
425.782 
398.425 
384.397 
362.112 
375.775 
380.049 
367.67 
398.855 
398.602 
370.461 
383.968 
374.575 
381.496 
399.678 
378.58 
394.547 
375.981 
398.163 
411.999 
387.431 
377.116 
368.623 
394.209 
409.531 
405.622 
393.805 
410.508 
413.788 
417.51 
407.775 
394.188 
419.907 
384.249 
391.197 
389.382 
383.769 
390.723 
398.896 
405.562 
411.817 
406.835 
404.315 
400.654 
411.63 
403.188 
420.421 
391.866 
404.224 
398.215 
412.622 
414.441 
403.537 
422.052 
437.82 
422.57 
456.173 
424.318 
434.776 
444.826 
430.013 
407.3 
405.422 
411.195 
432.006 
392.975 
410.285 
392.719 
392.178 
396.093 
368.525 
395.307 
407.655 
410.094 
393.018 
413.222 
378.268 
396.745 
409.483 
404.486 
433.446 
426.589 
438.466 
426.437 
409.076 
418.534 
399.997 
405.963 
437.001 
438.042 
427.081 
400.923 
427.563 
411.349 
402.871 
394.056 
399.641 
396.338 
397.071 
412.764 
392.446 
398.069 
380.863 
379.631 
381.767 
393.396 
378.213 
380.951 
373.314 
425.193 
410.456 
415.972 
429.165 
446.187 
428.178 
411.378 
390.288 
421.928 
412.11 
418.093 
410.796 
426.724 
434.145 
430.269 
450.708 
359.903 
397.401 
391.7 
376.706 
395.326 
411.042 
407.958 
410.86 
413.885 
416.683 
398.876 
401.512 
403.509 
450.379 
416.839 
430.127 
409.575 
398.237 
406.716 
402.488 
395.974 
391.241 
386.715 
409.405 
394.746 
396.639 
367.711 
387.075 
391.617 
391.554 
406.681 
419.924 
426.446 
403.886 
453.202 
436.735 
431.488 
420.274 
417.205 
417.055 
435.63 
421.39 
423.27 
445.166 
432.858 
428.483 
400.894 
418.912 
424.574 
400.301 
403.736 
384.002 
391.581 
424.585 
423.018 
401.139 
412.505 
389.047 
391.802 
371.034 
392.146 
404.159 
396.845 
389.761 
385.133 
411.05 
395.727 
398.398 
380.185 
393.961 
393.979 
431.753 
391.773 
399.386 
398.791 
413.159 
417.603 
399.084 
409.663 
419.658 
424.714 
435.578 
433.561 
432.597 
439.424 
431.29 
433.769 
416.941 
451.958 
423.304 
433.465 
475.231 
469.676 
378.226 
387.602 
396.357 
419.659 
449.825 
478.641 
471.303 
426.345 
458.586 
463.257 
430.015 
455.876 
460.259 
445.906 
423.287 
436.734 
418.164 
424.484 
422.083 
438.158 
453.99 
467.512 
446.404 
448.566 
433.832 
417.832 
419.096 
433.866 
403.668 
408.716 
414.654 
436.033 
413.521 
411.129 
429.511 
410.338 
385.508 
419.802 
397.849 
415.094 
402.478 
417.383 
404.837 
426.885 
414.713 
419.738 
428.194 
426.516 
428.759 
446.239 
424.419 
408.773 
424.851 
439.718 
419.246 
427.076 
424.674 
427.542 
453.983 
418.576 
422.907 
394.452 
402.073 
431.524 
416.803 
444.866 
450.978 
439.717 
426.865 
464.617 
458.817 
450.523 
416.895 
447.243 
441.753 
448.821 
438.855 
459.46 
426.477 
426.732 
415.727 
431.335 
443.361 
422.573 
446.477 
466.266 
452.988 
424.3 
449.382 
414.238 
428.967 
444.281 
433.65 
442.362 
464.229 
451.106 
439.611 
442.307 
416.281 
416.351 
429.747 
447.765 
439.259 
434.186 
443.045 
436.443 
429.5 
409.258 
431.796 
458.057 
435.292 
411.374 
441.07 
462.206 
467.6 
472.834 
449.916 
471.894 
444.35 
452.132 
467.879 
433.616 
469.833 
460.822 
468.366 
452.454 
467.306 
477.572 
504.805 
449.765 
481.837 
465.122 
471.501 
473.03 
439.48 
434.317 
442.562 
430.566 
436.06 
451.729 
449.638 
439.656 
478.647 
427.968 
438.404 
436.811 
475.039 
437.801 
456.729 
424.569 
419.527 
435.485 
448.016 
442.564 
429.797 
449.142 
454.422 
431.965 
437.916 
460.559 
459.635 
426.564 
448.276 
460.551 
427.374 
453.007 
439.331 
466.676 
472.678 
459.09 
481.011 
497.194 
454.641 
454.107 
447.493 
472.487 
458.631 
454.215 
478.358 
446.125 
437.969 
465.779 
486.039 
485.01 
466.884 
481.738 
497.549 
476.592 
481.929 
466.113 
470.038 
481.068 
472.592 
470.833 
507.649 
488.68 
481.922 
484.209 
471.397 
469.661 
511.01 
490.54 
466.95 
462.644 
477.53 
467.358 
464.582 
432.096 
466.352 
450.022 
450.062 
440.593 
457.536 
456.608 
482.281 
489.52 
469.534 
467.947 
462.987 
489.404 
489.903 
482.741 
487.312 
474.779 
476.772 
507.337 
455.008 
478.919 
481.362 
469.987 
479.308 
474.76 
456.519 
497.642 
481.891 
485.567 
518.912 
442.912 
406.166 
448.916 
416.206 
459.198 
452.396 
444.771 
470.342 
464.759 
481.193 
471.204 
493.743 
508.092 
520.075 
481.296 
469.942 
485.022 
497.756 
509.323 
519.765 
505.383 
482.83 
494.136 
462.837 
481.289 
494.876 
476.733 
468.511 
488.493 
495.037 
482.117 
453.376 
491.24 
447.486 
452.452 
447.132 
478.059 
463.113 
468.263 
501.118 
465.677 
498.151 
523.54 
550.048 
509.411 
517.056 
524.364 
511.526 
491.934 
496.158 
503.497 
464.46 
485.224 
492.611 
487.742 
500.272 
489.373 
461.226 
454.614 
481.856 
470.768 
505.204 
482.616 
519.88 
524.987 
521.198 
509.643 
518.127 
512.831 
500.547 
530.159 
539.635 
512.648 
547.025 
520.983 
525.521 
498.397 
516.699 
504.241 
518.924 
518.346 
517.147 
521.614 
515.42 
511.89 
515.947 
459.54 
479.746 
451.166 
455.469 
460.061 
460.39 
446.883 
514.69 
523.939 
494.809 
517.392 
517.23 
508.93 
524.996 
514.148 
505.761 
508.344 
528.701 
510.266 
487.21 
491.29 
460.678 
479.149 
478.129 
481.03 
508.907 
491.796 
500.601 
516.627 
491.16 
473.935 
501.008 
519.993 
503.269 
497.18 
495.264 
498.522 
506.1 
462.161 
477.012 
486.838 
514.351 
518.739 
518.992 
528.823 
520.029 
475.046 
466.475 
457.797 
435.6 
473.278 
470.368 
473.528 
515.763 
488.994 
519.039 
506.317 
478.462 
503.954 
515.336 
483.963 
499.805 
485.455 
500.073 
509.499 
490.894 
502.21 
487.701 
467.377 
459.926 
483.175 
445.855 
451.374 
455.134 
467.083 
455.465 
457.51 
429.843 
419.433 
454.042 
453.853 
450.903 
457.001 
439.314 
441.59 
462.449 
480.051 
469.579 
473.716 
489.611 
522.81 
