ITEM: TIMESTEP
50000000
ITEM: NUMBER OF CELLS
1000
ITEM: BOX BOUNDS ss rr pp
0 0.004
0 0.01
-0.5 0.5
ITEM: CELLS f_temp1[*] 
302.422 
287.552 
293.331 
266.214 
285.379 
278.501 
305.022 
296.312 
290.969 
286.465 
294.754 
286.688 
285.005 
290.905 
299.781 
304.459 
291.631 
307.199 
308.529 
325.408 
310.242 
309.46 
308.003 
319.659 
316.264 
308.494 
299.067 
307.7 
302.473 
308.703 
320.641 
311.56 
299.773 
303.041 
317.91 
298.522 
305.571 
313.065 
303.139 
301.866 
311.068 
313.619 
292.764 
302.712 
311.977 
313.241 
301.362 
292.606 
306.721 
297.183 
285.002 
297.635 
288.13 
299.609 
298.836 
288.788 
284.39 
289.867 
290.106 
284.126 
302.255 
280.481 
293.238 
299.573 
285.549 
284.394 
303.286 
301.633 
337.194 
328.062 
288.063 
293.177 
301.492 
296.654 
313.955 
307.531 
305.672 
336.359 
331.787 
314.301 
313.644 
307.851 
313.554 
308.901 
301.062 
297.65 
315.606 
309.339 
326.979 
330.956 
354.453 
340.692 
325.724 
358.72 
347.488 
343.309 
327.412 
309.843 
312.696 
302.249 
305.889 
314.482 
312.291 
310.268 
320.023 
323.627 
314.957 
335.899 
361.505 
334.591 
322.193 
316.997 
318.275 
314.344 
317.299 
320.08 
324.205 
311.813 
319.279 
317.855 
328.866 
320.003 
318.786 
311.491 
305.468 
313.704 
312.341 
300.768 
302.894 
296.543 
303.512 
313.629 
334.232 
302.313 
312.986 
312.771 
327.429 
317.698 
337.369 
313.245 
324.98 
318.6 
307.058 
316.353 
323.428 
327.455 
311.18 
313.742 
309.261 
315.784 
305.64 
333.771 
310.43 
320.418 
321.62 
335.967 
325.603 
328.571 
353.903 
333.174 
344.908 
367.403 
361.476 
331.368 
318.001 
329.377 
326.445 
319.047 
312.835 
333.066 
320.897 
308.921 
321.043 
317.76 
320.265 
329.371 
330.64 
343.692 
343.715 
332.172 
350.004 
334.895 
365.823 
345.161 
360.709 
351.44 
325.421 
333.485 
329.658 
344.329 
335.021 
357.652 
344.316 
345.127 
348.133 
345.756 
356.802 
360.741 
358.938 
329.947 
355.202 
362.256 
349.802 
342.557 
329.856 
338.731 
328.315 
332.914 
348.206 
328.186 
321.452 
330.147 
327.47 
341.152 
339.788 
342.987 
357.896 
339.205 
331.041 
336.525 
334.631 
337.654 
346.143 
343.595 
326.256 
330.506 
332.469 
366.431 
327.913 
319.762 
338.088 
352.386 
365.225 
344.604 
381.004 
366.126 
353.249 
381.087 
363.631 
352.36 
338.748 
356.884 
342.526 
335.152 
341.187 
329.255 
322.183 
331.957 
335.21 
354.28 
353.159 
350.736 
363.115 
366.853 
356.966 
364.897 
361.389 
362.101 
341.76 
350.6 
320.635 
326.582 
350.36 
345.922 
347.413 
351.253 
356.29 
341.957 
344.207 
354.118 
339.346 
361.749 
386.44 
373.251 
383.976 
404.625 
389.262 
371.209 
364.7 
349.545 
364.605 
361.175 
354.389 
352.668 
353.504 
344.334 
332.655 
348.508 
361.957 
374.842 
369.708 
370.687 
372.932 
355.97 
358.45 
353.197 
355.796 
387.287 
362.899 
372.941 
390.117 
354.897 
359.826 
362.251 
366.403 
339.3 
321.48 
326.195 
336.842 
337.173 
350.243 
361.969 
344.719 
356.636 
356.063 
344.27 
351.451 
350.184 
363.161 
349.206 
366.346 
357.89 
366.62 
369.924 
399.281 
382.611 
393.173 
379.669 
395.821 
386.829 
383.886 
380.42 
383.725 
366.768 
368.256 
365.753 
365.793 
357.916 
358.678 
377.495 
389.849 
399.206 
409.863 
421.889 
407.277 
411.181 
426.102 
391.624 
404.765 
390.312 
394.624 
355.212 
361.11 
358.365 
376.479 
369.038 
374.169 
382.828 
380.726 
398.297 
399.451 
384.696 
403.224 
446.77 
426.511 
408.962 
423.53 
415.233 
415.828 
433.924 
425.77 
406.491 
413.787 
400.439 
398.64 
392.837 
391.662 
400.471 
405.278 
407.423 
430.023 
424.383 
414.758 
401.559 
375.016 
371.318 
338.949 
359.767 
373.006 
388.804 
359.764 
401.046 
370.053 
392.536 
391.977 
384.582 
391.103 
403.127 
363.127 
370.67 
368.468 
394.741 
382.069 
397.432 
364.847 
385.781 
361.917 
367.448 
385.881 
414.843 
392.7 
376.224 
399.212 
396.04 
381.115 
385.687 
386.221 
377.41 
384.838 
378.844 
392.164 
391.447 
390.282 
380.044 
398.591 
409.854 
387.604 
389.24 
378.921 
378.167 
386.179 
411.398 
405.067 
402.59 
406.295 
414.483 
431.8 
426.317 
436.017 
421.735 
409.7 
425.19 
408.493 
399.274 
409.325 
395.965 
397.401 
383.262 
392.178 
379.28 
392.956 
388.478 
403.463 
409.968 
395.244 
402.106 
398.313 
393.941 
390.818 
383.676 
392.949 
379.355 
385.345 
395.141 
391.176 
387.708 
388.414 
400.97 
405.969 
414.054 
410.741 
383.197 
387.28 
381.983 
382.292 
397.54 
404.559 
406.303 
395.668 
367.67 
358.943 
361.879 
361.755 
367.52 
386.202 
395.434 
390.213 
381.112 
372.554 
376.639 
381.979 
366.937 
383.228 
389.415 
399.106 
415.948 
422.938 
409.866 
400.296 
400.439 
409.991 
388.614 
370.433 
397.068 
414.746 
415.838 
441.525 
434.332 
438.598 
447.913 
452.772 
444.827 
443.948 
468.672 
425.124 
404.576 
436.042 
463.144 
424.431 
445.839 
411.264 
421.856 
482.697 
457.383 
431.91 
447.929 
447.253 
426.135 
456.863 
421.019 
450.238 
451.846 
475.448 
457.757 
468.315 
448.477 
442.633 
442.136 
448.839 
425.991 
406.641 
440.737 
449.479 
460.827 
466.018 
434.874 
437.516 
463.318 
449.082 
401.733 
405.348 
447.085 
429.715 
425.708 
425.213 
427.764 
435.739 
441.432 
462.503 
443.293 
398.945 
429.945 
420.877 
405.158 
432.297 
418.536 
410.279 
385.314 
413.301 
412.704 
420.355 
434.629 
445.373 
434.955 
474.726 
431.842 
419.009 
419.081 
449.119 
425.003 
427.986 
422.481 
419.65 
429.751 
430.851 
431.731 
424.54 
400.653 
428.948 
420.201 
419.915 
452.913 
455.54 
422.92 
432.803 
409.937 
422.292 
441.343 
440.405 
437.056 
417.517 
428.644 
411.984 
421.295 
429.678 
452.076 
447.977 
426.32 
421.807 
437.308 
442.747 
451.115 
446.951 
451.596 
428.863 
453.893 
472.149 
456.96 
472.171 
418.806 
462.603 
457.375 
474.911 
454.723 
449.501 
445.262 
439.101 
444.308 
433.623 
444.483 
433.997 
431.65 
473.989 
436.773 
440.28 
421.987 
414.106 
462.439 
430.289 
458.865 
462.474 
471.093 
441.209 
448.488 
413.36 
442.737 
457.718 
472.511 
418.417 
432.667 
409.667 
451.844 
435.118 
453.886 
451.643 
427.312 
471.13 
446.391 
461.896 
453.562 
447.625 
444.658 
462.72 
461.023 
465.946 
471.23 
482.018 
478.74 
466.044 
477.046 
479.898 
487.697 
462.868 
470.623 
444.36 
457.375 
450.632 
427.892 
423.364 
455.351 
485.476 
425.747 
451.45 
431.694 
433.364 
451.013 
459.112 
437.637 
452.748 
415.091 
443.425 
431.308 
440.207 
450.071 
432.159 
422.402 
453.887 
462.186 
459.439 
442.775 
456.097 
442.602 
426.959 
445.373 
468.691 
465.46 
481.379 
461.311 
427.115 
476.46 
432.299 
469.408 
465.761 
460.623 
460.48 
460.157 
441.787 
472.016 
451.377 
468.4 
463.815 
477.508 
497.99 
440.93 
446.146 
449.808 
456.982 
425.737 
460.584 
433.084 
438.998 
442.943 
421.149 
415.142 
419.202 
441.97 
430.467 
425.927 
424.36 
451.059 
441.79 
452.266 
437.346 
477.359 
438.214 
451.088 
448.262 
452.899 
447.601 
432.048 
425.455 
416.52 
397.238 
419.823 
414.591 
406.962 
429.464 
448.266 
437.955 
446.275 
439.893 
427.653 
456.584 
461.057 
474.904 
449.581 
460.693 
483.571 
464.293 
473.342 
472.037 
484.92 
537.769 
472.702 
471.895 
481.418 
519.204 
548.395 
558.946 
520.661 
527.613 
527.579 
502.749 
490.12 
503.291 
544.445 
509.961 
490.804 
507.785 
482.496 
515.506 
486.063 
471.189 
472.79 
473.568 
498.53 
453.91 
503.192 
470.702 
473.918 
463.341 
476.816 
474.367 
501.345 
479.114 
493.03 
497.872 
493.347 
491.962 
487.827 
444.819 
444.97 
490.208 
466.793 
448.689 
482.021 
488.765 
495.698 
488.954 
459.716 
461.487 
506.403 
502.249 
505.368 
504.326 
485.343 
525.325 
487.682 
486.988 
461.87 
491.654 
449.746 
480.216 
480.04 
501.059 
474.589 
492.863 
481.459 
487.544 
495.328 
506.968 
495.32 
512.228 
491.591 
465.445 
449.592 
430.39 
421.575 
431.816 
441.384 
454.593 
427.77 
440.94 
438.376 
479.665 
480.558 
427.656 
450.25 
449.348 
464.089 
498.94 
461.404 
480.438 
484.314 
490.918 
500.708 
488.325 
515.236 
481.045 
486.502 
498.212 
456.817 
445.492 
449.139 
472.794 
451.123 
440.195 
447.282 
464.231 
463.737 
445.423 
484.185 
479.375 
497.609 
487.242 
485.013 
467.23 
461.433 
482.791 
441.699 
444.187 
479.301 
471.808 
490.64 
456.788 
479.485 
475.113 
481.482 
486.428 
448.472 
456.28 
449.405 
429.057 
452.046 
436.752 
419.997 
435.995 
432.692 
494.291 
473.724 
475.627 
479.27 
490.445 
491.941 
475.819 
462.328 
437.597 
425.774 
471.889 
470.218 
476.799 
478.068 
493.424 
497.829 
526.286 
497.12 
510.661 
493.397 
507.996 
477.929 
496.109 
480.415 
473.872 
492.357 
502.939 
472.233 
501.109 
493.537 
518.743 
495.692 
488.266 
500.084 
472.912 
507.316 
519.167 
474.496 
469.283 
493.759 
532.715 
513.459 
513.379 
536.995 
488.114 
491.643 
443.305 
483.719 
477.482 
483.133 
474.569 
497.008 
494.717 
488.7 
456.896 
481.636 
507.892 
494.906 
472.126 
505.31 
472.192 
456.322 
478.182 
472.48 
465.786 
443.609 
481.168 
472.258 
483.478 
489.914 
472.731 
471.437 
481.857 
490.339 
482.484 
455.912 
500.532 
483.424 
495.901 
479.729 
491.433 
506.951 
485.979 
483.711 
480.536 
468.873 
480.557 
507.503 
527.092 
504.447 
481.324 
502.099 
