ITEM: TIMESTEP
10000000
ITEM: NUMBER OF CELLS
1000
ITEM: BOX BOUNDS ss rr pp
0 0.004
0 0.01
-0.5 0.5
ITEM: CELLS f_temp1[*] 
304.584 
297.054 
312.167 
300.399 
300.9 
311.93 
306.445 
314.268 
310.439 
315.351 
315.587 
324.598 
312.168 
301.916 
286.701 
285.267 
293.124 
292.121 
289.881 
305.324 
310.528 
302.642 
325.444 
322.634 
327.508 
308.489 
328.457 
322.516 
322.942 
320.124 
318.792 
329.504 
317.054 
319.998 
318.153 
310.228 
301.267 
319.185 
309.683 
302.389 
320.215 
315.883 
314.058 
303.619 
335.324 
329.76 
327.637 
331.886 
336.475 
324.664 
303.352 
306.73 
313.102 
307.332 
298.213 
303.668 
297.313 
316.264 
309.002 
295.99 
311.837 
311.238 
308.088 
305.086 
292.675 
297.817 
287.164 
307.686 
322.677 
341.691 
298.232 
298.079 
298.288 
303.713 
302.338 
296.221 
285.924 
285.101 
293.285 
304.484 
308.348 
284.85 
297.959 
317.881 
327.835 
330.425 
349.487 
338.079 
323.584 
336.108 
332.039 
351.906 
350.837 
329.053 
348.522 
339.261 
337.093 
320.274 
324.217 
332.086 
316.462 
316.596 
325.331 
323.727 
312.986 
315.606 
315.202 
328.575 
318.019 
318.678 
324.09 
323.426 
323.684 
328.029 
317.397 
312.077 
323.514 
328.283 
322.054 
339.562 
341.75 
351.18 
348.792 
336.812 
350.458 
351.722 
345.536 
326.155 
328.582 
325.858 
325.673 
322.966 
355.457 
357.525 
347.025 
331.782 
327.445 
326.427 
338.619 
320.682 
331.627 
335.032 
330.646 
329.104 
338.744 
353.777 
369.624 
350.158 
350.956 
375.363 
339.229 
337.736 
348.911 
337.353 
351.533 
338.312 
360.884 
343.767 
360.787 
345.335 
349.304 
361.268 
369.898 
339.573 
335.803 
327.311 
361.842 
358.393 
362.133 
354.576 
374.827 
379.67 
348.672 
360.197 
344.08 
346.516 
335.69 
337.479 
353.207 
336.016 
328.357 
343.847 
357.475 
344.76 
364.036 
353.743 
350.971 
351.039 
337.616 
322.328 
339.781 
329.656 
329.92 
324.182 
333.431 
325.959 
327.645 
337.561 
343.016 
331.913 
368.496 
350.731 
359.863 
334.448 
344.732 
356.212 
353.774 
339.687 
344.565 
355.263 
349.754 
326.429 
325.647 
337.483 
354.25 
361.151 
336.488 
347.21 
340.923 
340.697 
349.564 
366.499 
378.308 
361.998 
368.163 
386.685 
369.582 
341.125 
342.891 
350.779 
364.746 
359.879 
359.838 
330.52 
349.721 
346.631 
351.091 
342.562 
326.414 
341.429 
355.859 
368.495 
350.165 
355.373 
358.443 
346.857 
347.267 
347.709 
366.067 
336.771 
354.479 
346.149 
332.48 
345.736 
354.794 
335.781 
343.798 
350.44 
360.054 
344.039 
364.552 
339.484 
335.625 
321.964 
339.359 
341.384 
332.043 
332.79 
344.016 
359.482 
356.127 
338.888 
366.667 
371.768 
359.797 
366.696 
361.332 
354.568 
338.49 
338.222 
333.59 
340.321 
332.169 
332.387 
317.166 
344.181 
335.77 
343.861 
358.924 
354.607 
357.618 
369.555 
371.054 
399.3 
382.552 
379.856 
390.165 
374.854 
401.427 
372.074 
386.343 
355.445 
391.353 
367.88 
365.861 
379.956 
366.7 
368.118 
370.675 
375.387 
377.748 
373.837 
363.125 
378.334 
392.105 
382.127 
364.59 
361.868 
396.883 
341.072 
346.025 
370.547 
376.884 
394.876 
374.566 
407.657 
395.239 
373.792 
365.267 
367.745 
373.869 
353.539 
385.544 
380.961 
388.85 
370.265 
389.588 
384.292 
391.52 
390.568 
366.625 
372.735 
384.213 
388.132 
401.172 
400.953 
374.109 
382.2 
393.7 
397.774 
399.755 
393.849 
379.9 
392.661 
385.302 
398.62 
368.911 
379.53 
374.105 
365.536 
373.911 
397.765 
382.894 
416.516 
383.21 
402.081 
392.205 
389.689 
372.929 
396.763 
394.412 
396.759 
403.529 
399.379 
393.895 
408.5 
388.226 
399.16 
376.681 
405.811 
393.221 
402.964 
377.262 
399.284 
373.523 
363.09 
406.858 
392.747 
395.935 
409.932 
400.284 
405.063 
423.454 
411.247 
382.645 
411.533 
395.544 
390.039 
374.314 
365.22 
361.481 
374.435 
371.047 
382.859 
382.516 
395.976 
366.379 
393.89 
405.213 
405.3 
381.576 
382.768 
405.284 
380.553 
406.901 
390.446 
379.107 
399.856 
399.846 
407.687 
403.413 
387.593 
399.612 
397.792 
389.346 
416.743 
397.858 
407.344 
399.141 
403.723 
413.13 
381.962 
383.619 
378.253 
383.827 
364.499 
373.637 
389.557 
387.167 
369.868 
373.299 
380.891 
381.169 
386.47 
384.504 
401.593 
422.892 
399.849 
408.218 
420.11 
408.406 
389.944 
405.091 
383.706 
429.293 
415.095 
409.905 
436.769 
431.954 
413.79 
421.734 
410.581 
406.08 
418.993 
417.711 
421.632 
398.653 
396.299 
385.155 
396.916 
415.563 
392.793 
382.951 
387.626 
390.393 
412.522 
391.879 
397.659 
414.972 
426.442 
421.486 
397.319 
424.017 
420.155 
422.574 
383.652 
404.172 
402.351 
397.47 
394.167 
394.015 
392.146 
403.394 
402.602 
403.802 
405.768 
396.956 
436.524 
409.278 
419.262 
377.894 
412.494 
400.225 
391.021 
400.392 
421.172 
412.981 
379.309 
382.151 
388.038 
402.964 
408.477 
413.604 
416.816 
394.211 
391.741 
406.202 
421.37 
396.516 
404.15 
406.569 
410.074 
434.533 
420.652 
438.05 
419.57 
434.783 
419.854 
417.422 
392.874 
377.994 
389.066 
381.25 
384.599 
404.314 
422.564 
444.783 
434.235 
417.205 
413.38 
416.531 
444.395 
441.433 
411.958 
424.196 
411.965 
408.269 
402.257 
419.889 
405.859 
413.331 
420.022 
417.651 
400.621 
410.056 
399.159 
406.812 
412.353 
413.663 
394.117 
408.459 
409.359 
425.212 
432.424 
432.42 
427.612 
459.234 
444.064 
457.707 
423.622 
424.76 
434.936 
438.252 
432.732 
451.61 
431.481 
434.054 
428.79 
422.841 
409.015 
383.457 
418.387 
424.937 
435.175 
441.287 
442.357 
430.67 
446.497 
427.337 
427.155 
390.117 
429.669 
451.587 
466.729 
424.448 
441.402 
403.547 
409.744 
421.512 
404.176 
425.798 
402.698 
416.215 
411.774 
429.544 
432.208 
421.841 
449.297 
454.153 
428.758 
464.504 
452.331 
475.184 
446.301 
440.219 
463.525 
419.103 
446.743 
432.34 
419.235 
422.368 
429.295 
413.897 
408.419 
449.643 
454.941 
463.802 
439.658 
466.73 
453.276 
433.276 
432.054 
439.841 
465.584 
442.393 
434.677 
428.369 
443.51 
432.175 
422.306 
407.283 
380.326 
401.56 
408.282 
431.949 
395.242 
421.283 
432.406 
425.458 
447.656 
427.178 
424.597 
421.703 
414.361 
440.535 
442.655 
443.324 
432.957 
403.395 
438.209 
460.305 
448.108 
473.825 
443.047 
472.993 
426.924 
464.793 
473.809 
480.321 
464.591 
507.326 
493.247 
486.093 
464.062 
473.856 
467.914 
432.788 
469.526 
492.18 
443.305 
449.498 
441.587 
472.017 
516.02 
484.179 
488.547 
477.746 
475.607 
462.87 
475.524 
443.481 
467.756 
453.066 
438.676 
446.138 
468.786 
445 
433.189 
455.157 
456.513 
455.197 
463.109 
474.272 
477.073 
487.736 
461.756 
450.033 
444.12 
471.051 
438.422 
428.529 
437.825 
467.857 
427.197 
442.067 
437.743 
483.82 
464.363 
456.737 
473.002 
471.496 
466.636 
437.839 
458.863 
414.973 
433.163 
452.306 
426.833 
465.113 
462.634 
456.618 
447.421 
476.966 
466.481 
455.946 
451.991 
449.426 
420.643 
448.608 
413.212 
443.041 
429.842 
445.998 
456.2 
447.39 
444.069 
421.108 
453.358 
449.531 
459.366 
446.251 
431.731 
446.841 
460.301 
457.255 
456.035 
449.999 
456.596 
465.864 
457.514 
454.666 
481.702 
477.738 
470.165 
474.172 
455.246 
474.766 
462.052 
447.783 
455.896 
443.103 
469.855 
454.412 
428.199 
430.653 
422.359 
460.376 
463.439 
465.029 
473.057 
452.808 
442.429 
461.885 
456.842 
456.749 
446.417 
441.542 
450.778 
433.597 
450.728 
441.242 
424.101 
413.7 
427.815 
412.831 
431.578 
439.31 
454.82 
455.005 
453.103 
427.131 
451.737 
428.105 
452.615 
437.671 
437.473 
424.158 
452.909 
446.847 
428.666 
451.423 
464.684 
456.195 
453.357 
446.962 
439.197 
464.059 
461.653 
461.094 
488.989 
487.109 
481.874 
510.669 
455.137 
438.939 
452.72 
443.501 
463.442 
436.215 
440.207 
436.412 
438.435 
434.926 
475.629 
454.215 
455.621 
485.188 
479.305 
466.463 
494.589 
478.472 
490.075 
487.925 
460.621 
491.941 
455.48 
425.285 
440.337 
468.383 
460.693 
437.628 
462.936 
451.17 
446.714 
433.795 
450.795 
509.142 
473.074 
470.922 
459.628 
471.97 
470.086 
469.174 
459.665 
482.211 
471.15 
464.094 
471.905 
496.748 
497.91 
471.73 
474.197 
457.183 
472.697 
471.184 
479.318 
457.503 
439.243 
445.263 
481.311 
432.981 
451.665 
478.306 
453.632 
470.85 
489.463 
464.196 
487.004 
498.249 
484.875 
453.159 
474.74 
451.906 
446.874 
468.787 
441.066 
498.434 
482.32 
477.845 
481.204 
491.344 
459.481 
462.512 
495.319 
446.252 
454.439 
500.471 
477.815 
457.171 
465.403 
472.61 
476.551 
484.282 
499.002 
471.545 
471.785 
452.536 
492.095 
499.138 
498.02 
466.67 
445.398 
484.289 
492.724 
485.474 
459.794 
448.596 
435.992 
435.616 
436.458 
437.326 
481.196 
493.506 
485.905 
463.424 
444.056 
471.479 
452.506 
445.783 
454.633 
464.64 
462.565 
448.334 
484.763 
470.774 
442.975 
470.875 
513.212 
503.123 
467.784 
488.066 
495.58 
481.259 
470.179 
531.195 
504.336 
518.379 
516.509 
569.659 
571.677 
528.621 
571.846 
537.114 
539.335 
503.268 
534.027 
513.976 
473.109 
501.3 
521.52 
489.484 
472.989 
464.562 
513.744 
503.157 
503.805 
512.952 
505.486 
532.769 
514.101 
527.941 
506.885 
503.915 
494.45 
493.173 
482.96 
520.692 
513.243 
515.135 
503.261 
522.248 
517.005 
478.828 
519.209 
507.294 
509.732 
492.368 
506.309 
513.936 
531.259 
