ITEM: TIMESTEP
57000000
ITEM: NUMBER OF CELLS
1000
ITEM: BOX BOUNDS ss rr pp
0 0.004
0 0.01
-0.5 0.5
ITEM: CELLS f_temp1[*] 
315.35 
308.928 
328.996 
316.305 
320.255 
316.273 
325.935 
311.059 
294.498 
314.312 
306.281 
301.621 
323.802 
293.476 
311.735 
316.615 
298.496 
305.116 
313.343 
296.946 
307.724 
300.847 
297.135 
317.052 
313.066 
302.092 
308.822 
280.955 
286.322 
303.825 
300.38 
285.842 
291.463 
286.129 
302.647 
280.306 
292.271 
286.211 
304.308 
299.838 
294 
296.241 
296.492 
295.266 
316.404 
306.811 
298.418 
309.894 
294.918 
297.058 
300.202 
303.167 
287.073 
287.563 
283.927 
290.291 
303.438 
303.293 
305.939 
296.866 
292.694 
301.582 
289.898 
297.053 
291.881 
279.539 
297.497 
320.639 
296.179 
308.818 
303.954 
289.517 
286.595 
275.066 
277.609 
282.331 
276.807 
271.825 
285.308 
278.897 
290.854 
288.229 
285.954 
291.869 
285.519 
280.778 
279.868 
282.169 
281.659 
300.986 
295.324 
302.298 
315.778 
312.475 
317.318 
318.006 
309.616 
311.812 
313.448 
310.66 
308.801 
324.341 
316.653 
315.061 
321.139 
311.124 
311.8 
316.848 
340.021 
318.858 
334.308 
333.081 
330.46 
329.394 
324.365 
320.403 
338.342 
324.783 
317.654 
315.234 
306.096 
306.278 
313.447 
318.633 
315.648 
310.372 
312.254 
304.483 
327.859 
331.421 
313.823 
311.545 
298.394 
317.053 
328.817 
310.493 
331.347 
326.448 
320.137 
331.081 
330.579 
314.408 
319.889 
324.011 
314.29 
324.295 
335.694 
329.857 
336.116 
340.199 
339.889 
335.308 
342.418 
328.302 
324.997 
319.188 
331.341 
332.848 
359.329 
355.56 
327.991 
331.265 
344.293 
336.486 
340.231 
341.145 
349.611 
342.697 
351.516 
332.184 
350.798 
375.116 
367.761 
361.233 
359.161 
340.039 
365.254 
373.722 
394.251 
405.229 
354.19 
328.824 
345.169 
340.218 
352.86 
332.785 
318.848 
317.924 
310.879 
316.345 
314.494 
311.926 
316.332 
327.712 
316.886 
325.271 
323.483 
324.709 
319.785 
325.05 
331.478 
355.139 
346.492 
323.009 
371.334 
359.145 
347.858 
360.146 
339.335 
342.091 
345.718 
355.075 
344.634 
343.25 
348.021 
348.483 
329.591 
330.912 
356.446 
326.438 
332.184 
359.378 
340.743 
355.328 
344.341 
361.796 
348.318 
324.911 
344.326 
334.98 
349.484 
340.13 
340.117 
323.683 
340.347 
343.692 
342.599 
350.261 
346.975 
359.724 
364.384 
384.961 
358.997 
373.786 
356.717 
362.173 
357.673 
366.778 
360.137 
344.49 
364.341 
378.318 
366.836 
368.169 
384.809 
365.956 
381.893 
376.811 
369.014 
360.855 
335.574 
365.154 
356.973 
332.89 
330.866 
353.825 
348.084 
352.253 
358.183 
337.694 
364.024 
363.682 
380.638 
373.741 
364.342 
377.968 
384.404 
373.276 
381.724 
396.147 
389.144 
381.838 
370.315 
374.935 
391.221 
385.916 
385.472 
370.945 
357.679 
355.573 
359.368 
342.67 
354.901 
338.754 
348.717 
389.749 
384.079 
400.25 
390.423 
387.29 
386.078 
383.062 
385.377 
382.924 
375.779 
344.106 
361.914 
360.133 
371.075 
366.81 
371.27 
375.647 
357.447 
379.479 
390.873 
383.481 
378.071 
393.129 
383.058 
372.093 
382.419 
364.229 
362.712 
381.973 
364.182 
381.06 
387.288 
377.128 
404.276 
368.385 
369.509 
376.407 
374.05 
388.936 
378.673 
381.37 
406.506 
396.092 
390.329 
380.428 
388.789 
367.305 
366.481 
385.125 
380.785 
387.302 
341.201 
350.857 
362.404 
394.982 
359.654 
393.543 
391.306 
383.487 
412.614 
409.161 
383.102 
378.391 
384.516 
382.814 
383.282 
413.308 
411.635 
372.572 
371.066 
383.479 
380.571 
398.345 
380.337 
360.804 
354.137 
385.482 
358.289 
370.797 
357.955 
374.167 
365.22 
393.09 
379.887 
375.491 
387.635 
388.447 
410.369 
409.898 
370.593 
377.876 
368.461 
396.972 
382.431 
404.683 
394.021 
396.875 
395.231 
399.839 
375.614 
412.948 
413.211 
390.674 
385.446 
369.328 
364.484 
357.588 
366.634 
361.085 
349.925 
361.994 
394.362 
370.236 
346.099 
396.038 
392.959 
365.35 
364.956 
369.807 
356.363 
369.534 
384.14 
402.408 
387.715 
385.002 
385.325 
395.416 
383.635 
389.908 
397.449 
395.683 
393.168 
399.616 
406.587 
414.883 
389.665 
407.573 
397.732 
402.322 
383.121 
394.095 
378.434 
406.164 
406.487 
397.121 
378.405 
375.421 
363.042 
385.574 
401.946 
391.339 
393.32 
389.93 
385.385 
402.786 
421.344 
409.162 
418.836 
428.35 
387.954 
386.992 
393.929 
382.982 
401.329 
393.901 
384.111 
397.603 
389.622 
376.059 
386.555 
379.89 
376.213 
371.111 
362.279 
367.594 
388.142 
405.052 
385.727 
400.675 
396.001 
396.381 
407.285 
377.538 
379.87 
406.506 
429.86 
404.774 
421.372 
401.21 
420.237 
399.958 
412.308 
390.259 
396.948 
397.694 
421.629 
396.469 
407.019 
407.692 
384.497 
381.973 
396.068 
406.164 
400.912 
408.071 
406.57 
398.704 
407.774 
403.623 
403.686 
389.545 
408.481 
422.779 
445.184 
408.089 
407.508 
409.043 
406.621 
414.459 
395.132 
400.526 
402.501 
408.725 
407.825 
422.342 
429.265 
406.852 
457.271 
438.301 
419.016 
437.092 
431.916 
424.903 
449.217 
433.823 
442.732 
420.779 
433.851 
415.35 
424.143 
416.639 
428.271 
433.165 
442.162 
411.981 
437.436 
424.611 
426.68 
413.93 
433.152 
420.334 
416.787 
415.811 
439.5 
420.646 
413.572 
415.302 
415.257 
435.049 
419.71 
433.183 
433.518 
439.575 
422.156 
425.867 
429.654 
434.852 
439.829 
434.787 
418.107 
446.969 
428.871 
428.803 
422.527 
434.082 
413.24 
423.092 
410.403 
434.203 
406.421 
412.777 
442.49 
439.746 
428.908 
460.659 
459.124 
462.576 
446.154 
432.999 
439.943 
438.191 
407.863 
403.061 
411.369 
424.786 
415.038 
431.463 
434.804 
446.075 
459.76 
414.328 
457.591 
445.37 
449.55 
446.399 
443.601 
447.501 
441.275 
430.804 
430.365 
453.143 
442.115 
438.26 
426.987 
440.221 
467.902 
437.729 
461.6 
478.189 
434.76 
457.69 
412.549 
444.815 
454.627 
451.394 
411.705 
418.378 
408.709 
418.503 
423.024 
427.772 
428.243 
446.816 
439.038 
434.374 
456.094 
435.582 
432.007 
443.658 
436.026 
478.757 
440.273 
434.1 
436.862 
420.91 
445.258 
447.909 
436.473 
453.178 
460.895 
425.337 
471.26 
452.427 
467.523 
471.457 
483.035 
465.355 
443.464 
460.206 
447.766 
470.503 
468.261 
448.628 
443.982 
428.83 
426.992 
434.605 
429.703 
432.39 
430.41 
415.829 
440.286 
430.385 
435.876 
457.602 
434.413 
442.246 
448.434 
429.181 
447.725 
457.455 
416.853 
410.681 
421.595 
448.467 
463.541 
439.627 
434.909 
418.674 
443.633 
423.223 
439.976 
447.088 
434.377 
421.497 
410.007 
433.472 
414.032 
420.804 
419.917 
434.061 
434.083 
437.014 
435.716 
432.019 
425.909 
441.087 
428.469 
444.749 
458.449 
448.7 
460.174 
469.427 
467.237 
481.289 
485.979 
468.189 
477.298 
460.23 
454.125 
465.505 
442.535 
450.98 
463.697 
456.728 
433.986 
466.318 
485.727 
459.196 
499.711 
485.462 
442.938 
427.293 
435.498 
437.42 
451.622 
410.732 
435.488 
420.011 
462.359 
424.841 
425.044 
417.889 
426.298 
439.387 
459.189 
469.614 
448.76 
450.34 
449.251 
422.391 
428.27 
433.525 
412.175 
427.03 
421.567 
463.762 
447.609 
467.796 
461.992 
447.531 
455.355 
454.846 
436.021 
448.655 
472.116 
465.347 
461.531 
470.164 
486.94 
490.46 
462.101 
485.594 
452.123 
449.33 
471.697 
452.51 
441.466 
422.699 
425.467 
459.599 
452.954 
440.441 
429.285 
457.108 
451.491 
433.57 
421.152 
432.104 
420.07 
392.228 
459.535 
414.925 
414.552 
422.55 
410.223 
426.331 
411.058 
425.825 
429.489 
460.382 
439.109 
469.997 
486.736 
458.062 
487.672 
489.729 
532.415 
479.887 
460.008 
448.148 
471.783 
443.09 
468.876 
457.954 
493.933 
461.383 
483.064 
468.973 
456.551 
470.78 
491.014 
515.615 
445.447 
470.356 
458.17 
478.189 
443.801 
455.073 
439.168 
471.345 
470.481 
449.886 
462.574 
471.339 
441.23 
465.974 
448.121 
425.285 
438.984 
434.767 
485.733 
461.746 
445.092 
437.169 
458.953 
493.841 
481.912 
458.684 
465.96 
489.589 
490.638 
469.974 
487.824 
467.815 
503.818 
451.213 
458.263 
460.156 
464.92 
477.581 
480.287 
472.919 
464.813 
447.515 
440.363 
474.96 
449.692 
482.847 
504.545 
469.469 
516.91 
502.956 
468.268 
492.366 
487.349 
469.648 
465.512 
485.238 
482.443 
490.079 
515.465 
516.651 
505.254 
483.191 
497.074 
523.27 
477.981 
450.647 
478.534 
480.843 
519.276 
474.554 
488.798 
481.171 
469.753 
453.221 
476.752 
469.715 
454.872 
448.521 
450.098 
455.774 
475.776 
457.255 
440.183 
440.96 
450.159 
439.434 
456.138 
450.868 
442.11 
457.818 
463.276 
517.58 
503.163 
530.881 
540.598 
505.089 
498.797 
485.119 
444.81 
450.259 
445.508 
461.429 
455.527 
462.265 
477.66 
476.763 
450.211 
482.95 
464.562 
466.385 
478.935 
473.245 
501.326 
477.991 
468.482 
468.072 
504.695 
507.147 
467.306 
483.914 
482.885 
500.532 
503.538 
525.933 
524.309 
496.384 
512.208 
501.544 
462.547 
493.063 
466.463 
467.651 
467.602 
468.349 
478.158 
471.742 
481.237 
494.738 
519.546 
526.153 
517.18 
517.187 
537.582 
491.229 
483.263 
501.161 
501.929 
488.766 
501.507 
520.291 
502.564 
492.883 
514.866 
516.801 
509.432 
508.199 
481.069 
505.851 
530.745 
522.692 
558.882 
512.963 
496.835 
493.16 
507.415 
492.697 
482.873 
489.293 
499.92 
481.117 
477.805 
485.826 
488.658 
469.52 
459.802 
466.02 
455.134 
438.246 
459.202 
459.098 
491.677 
457.871 
