ITEM: TIMESTEP
88000000
ITEM: NUMBER OF CELLS
1000
ITEM: BOX BOUNDS ss rr pp
0 0.004
0 0.01
-0.5 0.5
ITEM: CELLS f_temp1[*] 
308.181 
317.046 
315.542 
297.456 
310.659 
316.691 
311.283 
313.95 
306.146 
310.04 
314.774 
292.758 
303.101 
288.477 
286.764 
293.609 
287.776 
312.434 
313.043 
308.437 
294.898 
297.496 
300.778 
300.724 
278.295 
278.674 
274.449 
267.676 
292.382 
293.385 
293.499 
298.566 
290.959 
285.017 
294.781 
300.351 
325.019 
318.362 
311.063 
303.058 
312.58 
310.01 
297.945 
310.363 
307.752 
304.787 
306.773 
303.729 
281.707 
305.166 
309.352 
303.953 
313.761 
318.585 
311.438 
323.488 
332.033 
336.236 
307.766 
299.229 
295.96 
284.589 
314.159 
317.052 
310.544 
307.229 
310.686 
319.689 
307.647 
327.816 
322.629 
312.998 
304.643 
322.704 
308.154 
308.026 
300.973 
298.967 
309.941 
293.659 
299.966 
318.447 
323.162 
328.292 
307.351 
300.264 
325.037 
338.265 
326.809 
325.194 
330.168 
323.823 
319.55 
325.376 
325.817 
327.7 
310.883 
324.705 
326.619 
320.728 
312.883 
316.683 
295.388 
314.433 
328.465 
322.8 
327.233 
312.6 
309.225 
334.884 
330.348 
326.216 
346.482 
359.016 
370.895 
372.421 
368.7 
331.03 
330.48 
340.544 
329.34 
314.184 
344.622 
339.056 
328.582 
328.83 
328.024 
333.775 
321.042 
338.983 
322.816 
339.324 
349.826 
344.736 
372.815 
361.447 
346.022 
341.734 
340.342 
362.671 
336.528 
333.308 
337.601 
333.7 
342.228 
341.769 
325.098 
327.849 
323.714 
334.864 
332.265 
320.692 
323.28 
329.327 
326.791 
342.942 
368.92 
366.305 
347.251 
345.956 
348.858 
341.358 
360.336 
354.997 
367.057 
363.005 
368.349 
364.313 
373.726 
387.66 
370.589 
378.709 
360.371 
351.84 
356.57 
351.761 
363.763 
374.875 
374.988 
346.255 
346.435 
347.321 
342.227 
343.304 
333.994 
350.069 
341.897 
363.336 
352.699 
338.744 
324.469 
333.551 
323.39 
350.976 
339.557 
336.661 
316.544 
326.281 
317.143 
340.624 
339.046 
340.54 
340.411 
343.287 
365.295 
378.044 
359.839 
379.928 
370.892 
382.764 
377.307 
335.358 
328.319 
324.3 
334.279 
376.724 
356.301 
361.833 
356.401 
366.718 
366.198 
397.764 
398.065 
395.183 
397.71 
386.222 
367.214 
397.189 
377.667 
357.154 
379.069 
375.335 
383.289 
352.253 
358.241 
365.449 
363.666 
359.414 
347.528 
333.871 
338.06 
333.815 
351.675 
345.635 
330.418 
337.842 
358.547 
347.152 
350.379 
347.149 
329.855 
357.507 
342.032 
366.856 
374.499 
348.035 
330.514 
346.927 
347.325 
373.569 
368.427 
380.309 
372.912 
351.322 
360.835 
362.147 
352.711 
376.106 
365.684 
372.176 
355.828 
350.9 
369.413 
335.616 
341.588 
352.617 
344.143 
348.177 
348.884 
378.408 
365.097 
356.434 
336.919 
344.908 
361.342 
386.688 
377.468 
352.96 
343.543 
359.095 
358.068 
374.026 
341.348 
340.777 
335.894 
340.485 
353.386 
372.495 
343.078 
336.691 
342.41 
362.74 
365.004 
356.624 
376.969 
336.984 
346.048 
367.257 
354.152 
357.967 
379.518 
378.133 
344.508 
363.85 
348.921 
358.757 
343.831 
348.389 
363.499 
351.065 
366.093 
345.032 
361.656 
338.383 
367.864 
350.359 
335.452 
336.309 
352.385 
342.489 
347.389 
350.704 
351.86 
334.948 
343.461 
327.304 
334.797 
335.833 
331.735 
339.764 
407.028 
377.868 
383.558 
397.842 
395.308 
374.947 
374.933 
374.032 
397.725 
374.144 
366.724 
343.27 
343.223 
338.633 
370.197 
373.585 
350.672 
362.369 
349.645 
370.309 
389.22 
376.985 
397.613 
396.003 
359.731 
377.186 
395.034 
388.108 
384.247 
389.563 
372.589 
369.637 
346.043 
363.276 
369.828 
387.486 
370.795 
355.035 
398.192 
387.065 
382.733 
385.958 
382.486 
383.593 
386.512 
396.705 
394.373 
392.921 
377.643 
380.534 
368.662 
387.809 
381.453 
382.675 
366.327 
359.08 
351.835 
382.87 
375.668 
401.171 
391.783 
401.252 
424.768 
401.498 
419.927 
403.731 
407.74 
401.408 
374.718 
362.063 
362.615 
369.449 
386.89 
386.808 
402.733 
388.761 
363.898 
366.208 
377.263 
381.609 
366.661 
376.013 
373.373 
370.32 
380.925 
360.954 
353.403 
388.707 
362.656 
370.841 
362.986 
384.443 
357.824 
361.246 
394.429 
394.046 
404.36 
414.461 
434.589 
416.15 
413.562 
392.303 
376.187 
388.849 
392.41 
386.268 
391.15 
395.146 
379.81 
389.608 
370.335 
373.784 
372.195 
402.274 
399.247 
379.16 
383.051 
369.004 
373.018 
385.947 
381.001 
392.923 
406.023 
422.044 
408.359 
427.42 
448.702 
428.875 
437.163 
446.045 
441.873 
417.312 
418.877 
395.971 
416.397 
394.037 
390.566 
391.672 
395.816 
389.377 
403.238 
388.545 
418.999 
408.994 
404.038 
419.193 
438.05 
425.461 
442.187 
418.757 
428.635 
441.718 
419.69 
405.913 
401.177 
393.688 
408.606 
426.101 
406.503 
418.834 
421.824 
403.171 
418.03 
418.546 
402.227 
437.481 
420.652 
428.768 
441.051 
433.438 
418.016 
427.251 
409.87 
411.185 
411.875 
397.394 
412.337 
412.422 
418.099 
415.523 
426.76 
403.209 
428.258 
422.209 
442.592 
436.805 
411.313 
445.496 
427.809 
423.334 
428.438 
421.181 
430.214 
455.022 
458.622 
456.343 
440.547 
437.384 
435.6 
424.546 
405.804 
387.764 
373.166 
433.926 
431.482 
424.365 
442.142 
438.242 
447.594 
433.472 
423.573 
431.536 
428.293 
411.726 
419.561 
400.995 
432.789 
391.382 
426.049 
453.443 
453.909 
442.215 
462.471 
455.433 
424.288 
433.405 
431.471 
416.952 
403.619 
410.388 
439.121 
420.958 
414.527 
431.112 
432.529 
404.882 
426.413 
432.121 
418.603 
425.465 
441.522 
412.381 
385.894 
420.866 
402.323 
396.309 
418.447 
425.71 
417.536 
406.947 
415.966 
427.285 
435.825 
414.198 
402.681 
401.32 
407.931 
393.271 
418.948 
411.504 
428.597 
429.957 
450.815 
434.694 
405.073 
436.423 
407.773 
439.305 
426.26 
413.92 
414.855 
382.083 
407.735 
412.111 
421.109 
423.235 
441.858 
426.817 
397.338 
396.602 
397.805 
382.136 
404.266 
379.288 
386.104 
402.317 
391.836 
407.03 
396.739 
411.749 
440.016 
427.672 
436.774 
396.237 
416.333 
394.038 
445.233 
441.954 
449.539 
448.316 
442.167 
481.178 
445.642 
447.388 
451.563 
464.74 
471.129 
456.17 
446.421 
467.419 
448.713 
452.507 
435.919 
427.83 
438.168 
434.612 
458.529 
461.255 
472.281 
447.915 
436.99 
416.062 
446.739 
434.905 
422.606 
406.027 
420.976 
421.1 
420.782 
420.476 
430.593 
428.309 
424.296 
449.263 
419.139 
440.791 
448.268 
417.418 
419.804 
460.827 
441.871 
440.461 
414.773 
410.053 
431.477 
445.033 
428.868 
423.066 
440.444 
459.987 
422.129 
469.236 
455.242 
459.056 
448.697 
442.365 
435.295 
452.91 
457.022 
454.722 
458.846 
444.31 
457.534 
453.854 
395.925 
431.987 
427.167 
434.466 
463.463 
462.027 
442.287 
478.645 
448.566 
408.996 
461.27 
462.065 
465.257 
453.599 
447.5 
451.68 
443.687 
435.736 
451.53 
441.594 
449.338 
473.836 
466.454 
466.693 
440.469 
467.983 
466.422 
470.521 
496.517 
479.574 
460.791 
472.248 
491.02 
462.208 
476.247 
487.515 
495.47 
475.755 
467.987 
467.516 
441.313 
439.961 
462.735 
479.27 
426.235 
445.09 
460.385 
446.33 
488.342 
488.335 
479.333 
437.93 
469.186 
470.601 
432.562 
438.432 
445.966 
447.821 
466.659 
474.663 
486.297 
470.486 
466.211 
482.189 
475.077 
452.954 
460.269 
436.286 
446.279 
454.413 
467.874 
471.266 
432.821 
441.759 
467.417 
459.442 
501.22 
469.294 
468.838 
462.667 
453.778 
489.766 
467.197 
448.067 
454.079 
489.426 
460.065 
470.503 
440.034 
456.389 
457.084 
431.383 
435.892 
471.66 
460.987 
449.298 
458.691 
455.671 
435.584 
443.577 
421.34 
416.021 
441.446 
418.443 
450.984 
455.255 
446.986 
461.708 
468.803 
443.001 
446.464 
421.153 
442.598 
442.229 
432.792 
460.666 
447.603 
419.083 
442.737 
485.804 
450.834 
465.561 
465.943 
446.769 
475.959 
453.162 
456.577 
436.375 
458.911 
473.25 
502.119 
489.413 
495.116 
476.683 
467.466 
452.034 
434.753 
469.082 
437.186 
454.97 
458.4 
444.282 
462.924 
469.403 
493.021 
482.621 
472.009 
487.728 
477.704 
493.898 
476.541 
484.418 
466.946 
451.693 
482.536 
499.517 
486.984 
499.616 
502.221 
515.192 
469.618 
487.704 
447.503 
457.726 
456.753 
463.272 
517.22 
481.918 
476.342 
495.785 
488.155 
446.848 
473.263 
518.355 
515.324 
466.907 
489.358 
515.327 
491.969 
496.891 
488.846 
507.675 
484.749 
497.774 
463.816 
499.318 
508.509 
522.717 
484.346 
546.753 
540.823 
509.523 
518.156 
522.471 
502.739 
514.661 
486.675 
538.84 
474.794 
464.383 
498.302 
479.121 
507.246 
520.916 
483.023 
479.707 
509.455 
477.095 
472.518 
457.311 
459.038 
476.212 
455.075 
496.964 
498.899 
493.015 
489.414 
503.376 
479.554 
495.404 
490.23 
458.389 
467.888 
490.774 
502.853 
510.566 
507.39 
436.624 
478.073 
460.23 
487.279 
461.896 
498.271 
505.244 
476.464 
477.636 
487.982 
484.06 
495.419 
474.701 
460.865 
431.339 
429.639 
461.348 
446.323 
473.393 
450.375 
500.494 
480.241 
506.649 
457.313 
496.14 
477.473 
453.138 
478.472 
468.831 
480.915 
468.605 
479.538 
496.62 
488.207 
512.61 
448.364 
490.212 
484.367 
469.392 
480.612 
457.881 
457.932 
494.841 
477.154 
481.875 
485.425 
479.007 
507.553 
486.627 
489.951 
487.984 
463.714 
465.572 
495.281 
494.328 
485.571 
483.459 
487.333 
513.351 
487.753 
472.737 
506.747 
499.5 
518.536 
516.012 
492.149 
504.38 
465.144 
482.025 
