ITEM: TIMESTEP
28000000
ITEM: NUMBER OF CELLS
1000
ITEM: BOX BOUNDS ss rr pp
0 0.004
0 0.01
-0.5 0.5
ITEM: CELLS f_temp1[*] 
288.06 
297.055 
296.753 
292.395 
304.809 
310.203 
286.403 
290.541 
292.766 
303.977 
302.972 
304.408 
311.554 
297.245 
317.319 
316.827 
310.257 
311.584 
311.723 
322.379 
322.278 
318.407 
281.64 
307.872 
301.068 
300.01 
281.204 
295.305 
312.788 
318.036 
323.438 
309.479 
308.822 
315.286 
302.203 
306.861 
311.781 
313.97 
297.156 
309.167 
298.504 
300.465 
280.566 
283.93 
292.442 
322.967 
302.793 
339.028 
314.247 
321.873 
312.967 
318.386 
316.815 
319.477 
320.546 
307.396 
305.054 
318.602 
308.984 
309.832 
330.231 
324.004 
349.881 
320.914 
318.852 
349.251 
328.63 
333.511 
315.077 
314.546 
329.069 
338.147 
339.084 
325.775 
304.492 
322.358 
316.605 
350.913 
344.527 
347.541 
346.482 
326.83 
313.865 
335.144 
341.662 
337.003 
319.799 
318.574 
323.841 
322.052 
317.156 
312.026 
323.702 
329.852 
312.155 
321.49 
307.952 
297.739 
307.758 
307.266 
327.912 
345.174 
338.724 
335.772 
337.502 
329.388 
348.746 
309.064 
315.723 
307.73 
311.074 
343.232 
315.159 
323.415 
348.326 
336.535 
323.125 
319.747 
327.701 
334.787 
310.5 
322.377 
292.697 
299.874 
316.468 
305.479 
300.135 
304.961 
312.783 
333.549 
322.96 
336.455 
319.392 
324.63 
317.9 
324.148 
315.619 
331.655 
327.606 
310.412 
313.107 
316.447 
319.087 
326.591 
334.626 
333.427 
320.945 
309.578 
314.917 
319.205 
320.818 
336.804 
329.482 
328.892 
341.404 
333.313 
346.863 
340.448 
356.573 
345.747 
343.509 
325.056 
327.326 
324.081 
317.752 
336.545 
329.301 
334.025 
318.151 
322.601 
353.273 
343.328 
345.821 
316.523 
320.624 
330.738 
338.81 
335.201 
346.788 
346.09 
333.531 
340.797 
334.007 
319.326 
335.106 
325.916 
337.785 
352.971 
329.778 
332.766 
351.804 
351.735 
345.867 
335.725 
316.704 
331.226 
331.789 
338.058 
344.219 
359.961 
360.647 
345.646 
344.323 
345.581 
348.335 
355.11 
341.322 
351.264 
360.884 
333.299 
338.292 
317.473 
331.657 
334.52 
324.861 
345.359 
358.961 
369.174 
360.468 
372.444 
341.841 
344.201 
338.088 
317.581 
344.43 
341.319 
334.373 
342.833 
354.331 
347.78 
355.709 
324.517 
345.308 
326.546 
340.675 
335.204 
337.646 
333.495 
342.209 
347.124 
343.026 
331.566 
331.072 
347.489 
337.206 
365.17 
335.011 
333.977 
349.241 
351.646 
381.831 
372.947 
374.952 
365.536 
358.238 
349.958 
372.358 
355.198 
365.418 
365.028 
393.14 
357.977 
340.613 
382.047 
371.852 
383.185 
369.809 
371.288 
369.053 
378.083 
374.744 
369.632 
352.939 
367.38 
367.687 
350.328 
360.121 
355.122 
359.458 
367.849 
385.18 
371.627 
363.09 
369.369 
342.226 
358.325 
373.404 
374.151 
375.371 
364.357 
389.07 
366.4 
376.731 
382.377 
380.171 
390.222 
380.987 
378.52 
384.018 
392.78 
376.234 
376.467 
340.098 
352.965 
355.345 
361.481 
377.386 
371.831 
383.198 
373.66 
389.331 
372.928 
392.905 
397.078 
388.184 
404.579 
391.268 
381.217 
347.412 
342.69 
353.04 
356.277 
340.489 
357.111 
334.375 
337.324 
340.622 
344.291 
347.421 
353.752 
357.579 
335.042 
363.153 
360.249 
371.359 
356.755 
369.397 
361.79 
376.743 
374.479 
386.287 
356.837 
366.605 
376.187 
372.224 
373.962 
384.802 
387.516 
400.752 
388.771 
403.241 
383.05 
370.292 
361.107 
353.569 
377.061 
361.337 
395.877 
384.021 
387.202 
374.102 
387.642 
379.696 
402.297 
398.441 
390.177 
392.126 
393.599 
391.878 
384.546 
366.982 
397.928 
376.927 
375.221 
381.466 
394.267 
380.274 
377.98 
381.192 
382.607 
382.835 
366.077 
368.094 
348.003 
363.166 
358.835 
383.66 
414.69 
386.898 
388.176 
373.207 
378.367 
388.268 
376.9 
382.056 
392.57 
402.147 
396.3 
402.75 
403.936 
372.983 
384.13 
363.491 
370.913 
378.691 
399.188 
377.454 
393.803 
364.847 
418.991 
407.583 
383.684 
365.457 
373.922 
359.083 
385.886 
369.2 
369.441 
371.687 
373.569 
359.587 
357.495 
373.742 
361.849 
370.388 
397.04 
365.034 
362.195 
374.954 
357.409 
365.776 
413.098 
404.683 
392.943 
394.75 
393.93 
405.624 
385.062 
387.471 
401.695 
400.514 
417.15 
436.669 
422.081 
421.704 
383.373 
375.832 
398.487 
382.259 
378.183 
374.207 
382.892 
409.619 
418.285 
426.986 
440.006 
401.118 
417.934 
434.225 
414.874 
416.385 
389.252 
421.789 
399.41 
381.245 
378.618 
366.547 
365.107 
371.927 
370.668 
366.509 
375.895 
363.327 
374.442 
388.702 
389.374 
416.57 
417.317 
410.294 
431.399 
410.19 
398.616 
385.373 
402.821 
396.555 
382.881 
412.811 
406.733 
388.983 
395.26 
401.385 
409.316 
411.407 
414.3 
399.052 
394.768 
407.808 
430.911 
421.729 
439.397 
396.918 
383.916 
371.759 
385.326 
379.082 
391.183 
378.057 
387.824 
381.49 
376.814 
381.118 
377.314 
360.341 
369.614 
380.95 
367.372 
380.498 
368.581 
385.316 
376.91 
360.157 
370.334 
392.841 
412.7 
400.837 
411.703 
420.198 
411.144 
433.804 
418.095 
430.086 
434.256 
415.192 
434.238 
449.657 
437.366 
418.272 
399.47 
429.81 
392.9 
368.443 
386.61 
395.887 
380.912 
402.769 
447.587 
444.261 
434.555 
421.174 
395.498 
407.009 
396.893 
428.887 
427.895 
411.667 
438.201 
421.426 
432.369 
410.338 
428.553 
409.587 
434.665 
418.51 
418.729 
416.692 
416.242 
403.62 
385.774 
418.574 
399.069 
404.831 
416.724 
408.058 
405.755 
401.877 
423.844 
387.377 
401.044 
376.829 
395.547 
412.072 
424.973 
408.053 
426.052 
400.084 
407.053 
417.658 
406.917 
412.867 
389.477 
438.065 
409.2 
412.169 
436.383 
419.038 
396.232 
438.947 
429.916 
430.584 
444.624 
470.957 
464.792 
459.616 
424.897 
431.409 
440.834 
455.591 
461.167 
440.622 
445.548 
463.755 
448.215 
467.359 
440.592 
447.942 
500.387 
483.968 
483.218 
493.417 
490.326 
441.186 
453.798 
450.79 
466.566 
460.741 
475.975 
445.137 
453.903 
463.566 
471.238 
470.396 
469.876 
469.927 
472.492 
468.475 
453.096 
468.804 
461.583 
463.105 
443.817 
452.075 
447.244 
434.732 
467.608 
480.903 
430.326 
427.567 
407.005 
410.906 
421.469 
426.64 
408.455 
419.24 
410.344 
417.822 
434.664 
459.144 
459.307 
459.623 
455.597 
427.685 
450.805 
425.456 
426.647 
414.535 
409.331 
441.083 
431.241 
424.381 
435.259 
422.068 
421.594 
426.134 
449.086 
438.616 
437.207 
451.395 
471.454 
443.57 
437.744 
422.575 
457.054 
451.434 
501.635 
457.42 
445.156 
444.736 
441.678 
423.042 
449.57 
434.049 
445.444 
443.12 
441.272 
430.757 
446.397 
461.924 
483.744 
455.389 
487.665 
461.949 
449.13 
482.59 
438.604 
441.989 
437.956 
440.288 
447.824 
447.441 
455.389 
449.88 
433.361 
449.849 
429.248 
454.324 
455.109 
449.702 
440.492 
458.59 
456.324 
441.041 
471.723 
467.618 
448.172 
462.809 
461.957 
479.441 
447.299 
437.538 
402.99 
437.967 
477.732 
483.721 
466.944 
480.083 
462.297 
467.099 
456.935 
473.387 
433.216 
437.342 
426.278 
431.765 
430.748 
413.543 
430.041 
424.836 
414.583 
417.998 
432.026 
406.898 
437.388 
424.371 
410.312 
411.791 
397.948 
422.695 
453.069 
440.634 
444.967 
429.91 
427.109 
443.316 
412.359 
451.178 
462.934 
449.716 
460.417 
452.838 
435.484 
457.172 
452.664 
443.755 
483.814 
453.708 
458.643 
467.562 
481.572 
472.743 
472.795 
454.776 
466.359 
471.439 
480.672 
459.736 
452.182 
473.221 
463.439 
463.318 
454.855 
466.254 
473 
451.948 
462.026 
464.504 
479.09 
492.269 
478.044 
486.696 
499.453 
469.93 
469.18 
476.344 
454.574 
448.37 
495.523 
484.707 
468.447 
483.327 
462.949 
461.447 
474.535 
451.6 
465.98 
461.491 
459.388 
455.496 
460.946 
472.863 
528.823 
504.38 
510.5 
493.147 
446.225 
462.713 
433.318 
406.121 
432.653 
465.877 
466.961 
517.279 
492.324 
476.404 
492.333 
468.927 
473.57 
502.715 
515.491 
496.477 
521.281 
499.731 
482.559 
489.171 
474.691 
475.483 
451.785 
465.024 
479.786 
472.965 
507.028 
476.251 
454.55 
464.954 
464.585 
472.317 
457.627 
458.564 
480.382 
506.462 
488.854 
493.101 
494.035 
489.521 
432.101 
455.826 
460.985 
469.697 
436.231 
435.533 
439.178 
467.86 
467.792 
469.155 
472.374 
505.51 
478.903 
464.441 
451.289 
461.204 
436.316 
445.705 
447.542 
452.12 
432.947 
438.312 
451.522 
460.28 
454.105 
425.806 
432.535 
452.628 
444.431 
446.571 
424.05 
421.63 
437.626 
457.383 
462.262 
421.417 
436.652 
436.691 
462.809 
446.908 
472.699 
459.591 
472.174 
474.791 
481.584 
464.379 
477.409 
477.161 
501.223 
480.563 
471.727 
497.511 
554.481 
489.773 
458.995 
475.668 
475.602 
449.997 
489.653 
470.203 
469.035 
474.068 
487.154 
481.468 
475.152 
451.728 
469.098 
490.891 
568.076 
509.125 
511.523 
520.564 
565.238 
516.586 
543.584 
526.13 
555.903 
532.184 
528.856 
509.966 
506.344 
524.768 
517.313 
529.466 
532.591 
509.071 
524.524 
518.6 
501.99 
522.457 
529.413 
490.054 
473.686 
463.37 
488.244 
463.11 
490.839 
475.557 
455.557 
468.895 
485.847 
534.752 
510.9 
515.947 
526.075 
532.33 
545.486 
543.853 
509.028 
494.125 
496.841 
480.961 
468.234 
506.203 
475.221 
475.75 
487.267 
469.485 
454.252 
463.915 
473.973 
483.681 
501.034 
517.484 
492.379 
512.517 
478.233 
515.24 
488.5 
516.329 
486.968 
506.929 
522.639 
488.082 
467.015 
504.636 
473.737 
