ITEM: TIMESTEP
13000000
ITEM: NUMBER OF CELLS
1000
ITEM: BOX BOUNDS ss rr pp
0 0.004
0 0.01
-0.5 0.5
ITEM: CELLS f_temp1[*] 
309.507 
323.527 
324.923 
320.96 
320.133 
316.991 
325.211 
308.27 
306.59 
316.425 
320.406 
334.634 
298.059 
305.976 
301.714 
315.472 
305.632 
286.299 
299.282 
307.202 
302.608 
291.173 
306.864 
296.93 
298.195 
303.98 
304.756 
294.674 
310.74 
299.804 
299.12 
316.315 
309.495 
305.593 
305.555 
280.538 
298.377 
303.012 
304.568 
304.505 
303.432 
305.89 
306.175 
307.876 
297.859 
290.868 
290.997 
289.04 
306.991 
311.141 
302.175 
298.117 
283.199 
294.298 
287.677 
301.809 
302.201 
304.212 
301.683 
299.269 
313.628 
297.177 
303.578 
315.814 
323.235 
322.757 
323.574 
322.465 
311.744 
315.054 
317.133 
301.903 
308.098 
303.571 
320.349 
310.202 
324.709 
312.738 
314.098 
314.751 
313.999 
309.014 
296.347 
310.2 
298.572 
315.477 
328.139 
318.322 
332.198 
323.001 
321.948 
325.471 
316.056 
309.504 
308.406 
293.454 
298.427 
309.082 
320.095 
306.007 
307.682 
297.602 
312.314 
302.837 
308.754 
313.754 
351.815 
310.191 
321.861 
321.931 
319.556 
332.92 
334.759 
318.015 
304.242 
321.246 
320.221 
331.431 
323.796 
312.345 
333.833 
329.183 
340.754 
308.945 
325.456 
319.553 
302.45 
317.049 
315.719 
307.801 
321.86 
306.934 
316.811 
339.588 
348.432 
335.501 
326.082 
339.321 
332.758 
320.837 
315.397 
327.109 
328.557 
335.87 
321.583 
320.213 
328.931 
325.509 
348.988 
341.885 
330.256 
311.855 
329.745 
339.365 
349.009 
321.167 
327.923 
315.694 
345.527 
358.309 
366.278 
345.749 
336.677 
337.125 
340.927 
335.888 
345.426 
348.921 
365.966 
337.026 
343.675 
334.281 
344.085 
333.997 
352.258 
343.277 
354.321 
379.216 
354.373 
346.538 
354.632 
348.586 
330.097 
334.753 
337.107 
321.354 
333.597 
320.493 
327.736 
342.503 
337.238 
328.535 
313.119 
312.115 
329.896 
320.058 
341.154 
342.519 
356.254 
339.182 
342.059 
345.072 
341.795 
353.257 
336.485 
355.427 
346.619 
348.911 
358.819 
338.442 
337.939 
325.01 
320.274 
328.942 
323.927 
330.301 
327.86 
337.836 
347.417 
352.335 
336.785 
332.317 
337.635 
332.142 
338.664 
344.146 
354.729 
355.009 
352.991 
358.935 
349.78 
363.926 
359.715 
343.474 
343.148 
343.28 
354.647 
347.984 
365.967 
352.177 
359.668 
365.942 
352.34 
371.651 
368.326 
356.064 
322.834 
362.963 
358.509 
370.726 
347.997 
370.299 
345.827 
352.842 
359.047 
361.897 
372.425 
380.713 
381.623 
388.072 
370.108 
356.037 
382.284 
363.991 
365.485 
382.077 
368.455 
368.192 
366.794 
350.508 
355.31 
362.443 
405.95 
371.471 
406.414 
390.016 
390.719 
390.111 
377.879 
378.182 
362.104 
397.772 
370.045 
376.091 
369.116 
400.512 
387.933 
386.309 
384.702 
379.565 
389.632 
358.686 
383.367 
372.76 
393.791 
346.481 
344.533 
355.366 
370.648 
369.245 
367.48 
365.163 
378.483 
409.809 
390.659 
362.119 
356.971 
353.69 
358.575 
360.764 
364.855 
364.397 
353.109 
347.12 
349.033 
350.775 
358.498 
340.13 
382.026 
382.022 
365.582 
365.144 
388.862 
386.297 
392.222 
380.707 
363.169 
373.863 
373.263 
360.727 
392.23 
366.227 
371.407 
372.271 
339.795 
357.281 
349.537 
335.867 
349.637 
376.886 
400.548 
379.805 
404.951 
376.853 
381.748 
390.688 
365.412 
389.179 
372.528 
371.592 
382.486 
379.943 
373.006 
374.515 
382.691 
385.629 
390.527 
358.51 
382.559 
374.925 
380.614 
387.879 
387.655 
390.354 
382.713 
400.854 
379.079 
396.895 
380.196 
403.633 
406.111 
385.418 
393.924 
404.49 
395.449 
398.274 
410.368 
421.592 
411.705 
440.74 
417.507 
415.931 
446.051 
425.012 
456.976 
434.098 
402.294 
412.648 
407.043 
418.977 
434.207 
427.568 
428.36 
422.933 
391.979 
373.562 
397.002 
368.942 
413.624 
404.82 
403.118 
381.263 
392.206 
426.733 
396.141 
393.926 
395.078 
394.375 
384.717 
380.963 
382.966 
383.274 
406.646 
391.835 
403.613 
375.538 
380.523 
376.728 
384.959 
387.62 
399.68 
365.877 
389.792 
378.93 
384.048 
364.609 
385.099 
384.875 
394.135 
383.379 
384.451 
415.106 
394.932 
418.533 
448.764 
440.819 
436.89 
445.937 
415.243 
411.147 
420.446 
434.081 
436.076 
424.583 
414.538 
405.772 
400.243 
372.386 
386.933 
373.533 
375.247 
412.152 
429.254 
424.598 
405.995 
428.976 
406.321 
387.567 
391.081 
418.62 
390.682 
414.89 
401.833 
404.893 
416.943 
414.357 
431.536 
414.853 
416.082 
410.649 
409.347 
396.578 
411.801 
395.353 
407.565 
397.079 
412.465 
405.452 
396.78 
385.993 
384.867 
405.884 
392.46 
370.799 
396.246 
386.488 
401.113 
396.083 
383.567 
383.5 
376.085 
395.727 
406.627 
411.346 
419.988 
385.75 
377.051 
400.947 
392.095 
392.431 
376.806 
403.907 
416.287 
408.758 
395.556 
372.011 
385.614 
384.408 
394.875 
407.503 
399.419 
400.551 
409.208 
407.379 
397.584 
421.527 
439.8 
412.572 
425.904 
418.085 
411.16 
417.629 
450.89 
436.97 
475.22 
456.3 
444.602 
451.519 
448.42 
463.924 
451.503 
460.972 
455.806 
440.303 
458.752 
465.454 
456.987 
488.374 
450.881 
422.022 
460.673 
445.859 
444.845 
442.045 
448.046 
441.09 
454.905 
444.516 
451.876 
454.747 
450.673 
457.449 
451.204 
443.261 
381.156 
398.098 
439.901 
419.035 
404.534 
422.013 
410.838 
426.057 
382.799 
413.593 
405.768 
402.788 
407.378 
431.836 
414.804 
399.066 
403.273 
410.564 
401.212 
440.381 
467.588 
453.196 
468.614 
460.084 
466.554 
445.159 
462.346 
424.686 
446.394 
440.33 
450.954 
449.021 
427.818 
413.203 
415.686 
437.073 
420.882 
461.382 
436.623 
420.819 
443.462 
433.147 
435.167 
425.386 
422.061 
443.808 
454.45 
417.502 
462.106 
461.671 
446.614 
440.235 
443.627 
442.426 
436.108 
428.855 
440.961 
439.999 
408.103 
485.222 
457.625 
453.318 
433.513 
415.445 
430.72 
417.787 
407.227 
426.26 
431.717 
424.16 
437.462 
413.073 
443.377 
447.163 
437.419 
441.138 
426.98 
412.007 
405.445 
435.501 
470.575 
469.981 
437.351 
390.103 
406.615 
420.124 
421.151 
440.776 
458.991 
456.105 
435.358 
450.375 
436.313 
443.808 
461.081 
451.6 
438.955 
451.342 
444.081 
433.973 
432.063 
427.32 
427.859 
453.801 
419.153 
443.174 
451.416 
442.688 
454.066 
427.192 
434.551 
429.051 
448.92 
447.229 
433.11 
437.942 
465.536 
429.75 
427.965 
451.708 
424.73 
429.545 
415.226 
423.12 
419.604 
414.693 
430.028 
447.729 
412.219 
417.919 
406.546 
428.782 
426.445 
437.47 
435.841 
445.779 
418.337 
435.798 
432.981 
445.095 
450.541 
437.846 
411.158 
451.854 
442.118 
436.204 
446.075 
437.245 
453.587 
465.001 
484.793 
462.791 
463.469 
453.493 
441.323 
430.757 
447.2 
432.184 
410.944 
445.326 
439.742 
448.809 
463.703 
434.214 
436.527 
439.433 
433.592 
442.267 
456.244 
470.661 
480.881 
465.045 
460.714 
424.779 
510.374 
462.164 
461.114 
456.845 
454.307 
454.25 
420.369 
452.028 
425.311 
428.156 
437.088 
455.554 
452.695 
446.837 
467.702 
470.534 
486.91 
468.346 
472.209 
464.408 
499.724 
519.408 
465.415 
462.616 
467.632 
474.363 
456.084 
473.996 
478.86 
463.556 
462.774 
482.586 
474.218 
471.232 
476.128 
460.827 
478.115 
491.667 
470.868 
466.454 
469.969 
499.739 
511.752 
496.783 
496.88 
505.238 
459.058 
487.641 
500.401 
497.323 
503.151 
484.209 
474.62 
478.611 
474.089 
458.14 
497.578 
477.042 
511.945 
485.298 
487.664 
490.95 
461.563 
461.039 
467.12 
490.03 
438.215 
460.987 
475.317 
490.114 
462.201 
473.965 
487.579 
466.214 
451.579 
464.74 
450.95 
447.463 
467.216 
499.246 
467.008 
467.765 
469.489 
459.52 
466.988 
448.425 
441.454 
456.175 
444.769 
448.119 
439.099 
482.363 
473.239 
481.46 
464.419 
454.826 
453.519 
423.458 
424.072 
405.578 
411.765 
396.257 
386.058 
399.511 
398.03 
419.571 
446.628 
436.154 
470.265 
432.026 
474.692 
443.314 
476.029 
470.009 
443.786 
428.383 
448.614 
432.263 
446.962 
456.114 
458.716 
432.367 
433.375 
446.57 
443.889 
496.42 
501.286 
514.564 
505.087 
494.036 
507.948 
482.704 
478.873 
494.014 
474.629 
486.818 
495.55 
499.362 
517.183 
457.277 
484.3 
516.818 
501.84 
483.173 
451.798 
488.808 
477.552 
478.865 
485.102 
498.002 
503.583 
482.636 
496.975 
485.579 
485.518 
519.766 
509.972 
473 
474.859 
485.245 
515.716 
486.455 
500.922 
488.039 
488.097 
503.951 
528.045 
519.565 
540.384 
505.136 
492.796 
494.994 
498.755 
498.971 
499.207 
530.434 
501.751 
492.778 
469.664 
500.181 
472.566 
493.533 
482.988 
453.942 
496.084 
483.204 
539.245 
486.107 
469.933 
463.045 
466.981 
493.425 
483.883 
479.066 
482.571 
481.113 
512.727 
479.033 
468.091 
458.348 
460.282 
470.819 
481.035 
471.086 
490.273 
502.249 
503.063 
490.711 
494.962 
511.137 
513.474 
507.052 
498.302 
484.195 
481.686 
471.94 
488.389 
468.838 
472.488 
482.062 
458.113 
448.133 
448.408 
498.412 
477.743 
483.862 
477.261 
498.652 
502.383 
476.315 
503.769 
499.923 
506.53 
497.542 
499.659 
522.424 
475.011 
458.016 
466.672 
471.261 
456.975 
465.338 
459.957 
460.467 
463.847 
437.302 
447.021 
487.605 
475.578 
507.464 
495.546 
503.785 
484.533 
517.67 
490.498 
504.905 
464.783 
498.299 
514.55 
507.765 
497.956 
503.876 
516.125 
526.488 
483.06 
486.662 
469.957 
469.577 
456.643 
454.245 
498.934 
495.141 
