ITEM: TIMESTEP
75000000
ITEM: NUMBER OF CELLS
1000
ITEM: BOX BOUNDS ss rr pp
0 0.004
0 0.01
-0.5 0.5
ITEM: CELLS f_temp1[*] 
313.01 
340.273 
315.217 
325.801 
306.389 
312.404 
314.499 
317.59 
303.241 
308.357 
307.326 
320.679 
333.992 
303.335 
312.109 
289.017 
288.565 
296.54 
308.525 
309.846 
306.185 
303.066 
326.257 
303.949 
296.952 
319.086 
311.103 
311.674 
315.07 
313.83 
300.692 
319.201 
308.68 
324.147 
324.798 
320.038 
321.22 
335.519 
325.207 
324.223 
327.869 
327.347 
315.879 
330.401 
322.982 
313.285 
331.316 
312.703 
314.429 
319.526 
311.316 
314.197 
323.236 
313.507 
326.463 
310.852 
307.692 
311.142 
336.503 
314.934 
322.897 
322.153 
312.902 
306.948 
319.37 
326.943 
317.717 
323.048 
318.693 
316.931 
328.645 
336.424 
333.219 
337.01 
338.667 
322.731 
346.224 
318.157 
316.452 
304.567 
302.56 
294.728 
283.466 
312.433 
309.532 
312.705 
322.297 
329.084 
335.181 
311.05 
332.558 
327.458 
321.228 
324.803 
334.61 
340.38 
328.587 
342.305 
309.458 
310.888 
317.508 
294.839 
298.837 
305.376 
315.248 
317.875 
316.106 
318.315 
319.768 
345.38 
315.089 
312.155 
332.654 
340.583 
344.514 
349.788 
353.803 
325.923 
304.039 
306.642 
303.871 
292.756 
286.229 
286.49 
305.529 
302.241 
309.552 
308.906 
314.59 
337.341 
327.577 
329.051 
336.845 
343.983 
339.017 
318.375 
357.724 
341.94 
324.637 
329.098 
329.269 
331.365 
334.907 
330.265 
345.755 
347.744 
326.893 
328.444 
327.002 
324.115 
323.1 
351.004 
358.233 
345.601 
358.118 
356.059 
326.541 
329.239 
354.338 
349.369 
339.242 
350.991 
352.377 
329.212 
330.298 
324.688 
319.865 
330.799 
331.18 
319.242 
318.398 
345.48 
354.596 
341.795 
353.401 
346.681 
353.202 
352.37 
377.526 
354.845 
359.687 
350.346 
362.742 
360.791 
383.004 
344.76 
322.567 
323.73 
347.27 
348.689 
338.618 
329.327 
324.507 
333.757 
327.46 
329.417 
352.348 
343.328 
353.146 
344.572 
345.639 
364.995 
353.383 
350.892 
333.073 
337.596 
345.014 
331.501 
324.304 
331.011 
320.497 
356.402 
361.456 
361.681 
342.883 
352.998 
342.591 
373.031 
354.131 
344.149 
348.663 
356.413 
324.532 
323.903 
332.907 
330.782 
340.969 
323.981 
328.698 
336.631 
334.607 
334.501 
324.787 
326.018 
332.014 
326.446 
355.385 
363.287 
352.118 
339.452 
340.953 
347.434 
334.653 
344.133 
342.01 
339.05 
335.691 
339.494 
333.853 
351.386 
343.973 
349.304 
352.095 
369.261 
352.742 
344.54 
363.104 
372.479 
365.481 
363.982 
366.805 
345.875 
349.032 
351.101 
368.22 
354.364 
353.823 
355.506 
342.348 
332.134 
349.802 
357.178 
376.679 
358.858 
365.621 
370.281 
347.088 
375.084 
363.575 
374.915 
380.243 
364.812 
367.136 
370.235 
363.936 
368.976 
373.553 
378.92 
351.031 
382.427 
375.663 
354.01 
374.885 
367.653 
385.874 
357.56 
354.461 
377.282 
359.108 
346.285 
352.154 
374.292 
359.91 
356.922 
361.179 
387.227 
355.362 
363.136 
341.419 
338.026 
343.97 
344.455 
350.02 
345.137 
369.476 
366.426 
368.991 
353.153 
338.087 
355.604 
349.368 
352.566 
342.288 
345.582 
340.918 
357.107 
342.281 
353.815 
353.153 
341.654 
340.536 
327.38 
318.438 
320.77 
336.291 
334.473 
349.019 
351.428 
337.865 
342.95 
389.048 
404.842 
397.572 
400.771 
397.594 
382.124 
380.436 
391.848 
374.547 
382.351 
391.273 
335.792 
342.883 
346.764 
341.544 
360.136 
368.538 
364.046 
374.297 
385.13 
392.431 
386.904 
388.349 
396.415 
376.817 
377.203 
385.25 
391.676 
404.535 
404.09 
405.867 
418.325 
400.034 
419.714 
417.515 
399.792 
430.724 
400.189 
401.413 
399.69 
410.761 
407.075 
382.177 
408.466 
423.222 
414.739 
414.752 
417.728 
414.383 
412.36 
390.972 
421.576 
405.344 
421.834 
406.687 
390.209 
405.377 
382.338 
421.203 
422.551 
405.397 
427.538 
418.296 
413.956 
407.522 
411.095 
405.824 
426.062 
359.679 
380.618 
401.153 
402.537 
384.564 
391.85 
384.672 
407.784 
393.024 
407.392 
393.476 
377.794 
411.456 
395.173 
379.657 
383.883 
392.557 
385.802 
379.277 
401.539 
387.635 
399.178 
408.581 
408.25 
419.945 
403.45 
388.785 
402.559 
411.279 
397.265 
417.84 
417.431 
418.979 
427.38 
416.528 
422.736 
435.83 
388.638 
402.645 
372.137 
370.098 
382.826 
398.557 
390.073 
400.496 
395.288 
441.764 
449.314 
428.555 
402.1 
405.134 
447.387 
445.221 
408.34 
439.273 
431.168 
418.234 
439.61 
440.721 
419.245 
424.442 
443.343 
411.83 
436.977 
413.337 
425.965 
416.768 
389.898 
410.966 
395.072 
402.437 
379.917 
393.348 
417.245 
398.744 
430.442 
399.974 
390.994 
377.318 
415.12 
402.757 
413.041 
409.866 
400.28 
402.102 
420.451 
438.518 
425.761 
423.638 
415.515 
421.073 
426.115 
380.04 
397.127 
415.924 
408.581 
421.362 
395.32 
404.874 
392.555 
426.497 
431.044 
411.036 
394.504 
407.079 
410.771 
430.107 
428.659 
419.211 
409.761 
403.894 
389.667 
409.098 
399.349 
443.299 
419.026 
451.586 
425.107 
411.276 
443.17 
435.513 
427.964 
429.877 
449.292 
432.851 
420.336 
411.933 
416.118 
422.683 
401.515 
439.183 
413.854 
397.595 
426.599 
423.06 
442.172 
454.957 
404.981 
442.658 
437.658 
431.805 
432.865 
458.273 
439.594 
426.722 
416.261 
395.009 
393.789 
411.312 
355.163 
408.311 
407.101 
420.292 
411.083 
412.054 
412.331 
415.129 
412.201 
391.649 
376.433 
432.754 
435.463 
420.211 
418.255 
396.168 
391.971 
396.092 
406.604 
410.026 
413.131 
427.44 
386.374 
428.019 
418.203 
418.58 
409.508 
427.489 
393.566 
417.653 
424.025 
412.587 
410.644 
423.783 
412.718 
397.879 
410.689 
396.806 
408.984 
410.775 
408.438 
423.544 
420.52 
404.596 
394.605 
405.887 
378.955 
398.551 
365.48 
386.828 
404.594 
406.441 
422.212 
432.434 
424.135 
425.937 
412.958 
418.458 
433.353 
420.211 
440.617 
433.764 
420.108 
434.762 
428.365 
416.721 
431.33 
419.682 
400.599 
424.937 
408.728 
408.324 
401.562 
437.45 
412.311 
404.821 
429.674 
422.161 
411.463 
413.327 
420.124 
423.749 
425.569 
434.098 
420.652 
426.327 
440.79 
451.496 
405.527 
402.843 
384.269 
406.413 
433.783 
436.35 
422.232 
415.363 
413.086 
407.421 
426.453 
385.354 
404.893 
412.491 
411.546 
441.136 
434.865 
415.018 
445.389 
426.098 
401.236 
442.919 
412.377 
421.431 
466.936 
457.194 
448.733 
459.453 
459.951 
439.455 
433.902 
443.198 
454.056 
436.409 
431.702 
422.923 
449.218 
445.096 
448.687 
416.72 
426.16 
450.007 
463.978 
452.177 
457.734 
417.945 
448.682 
438.478 
455.907 
443.383 
441.301 
459.353 
451.43 
483.542 
455.512 
465.038 
464.34 
461.724 
453.776 
461.664 
485.53 
477.793 
465.454 
462.145 
457.643 
444.754 
460.614 
457.516 
452.67 
462.167 
454.498 
438.456 
473.154 
466.555 
484.915 
488.424 
481.811 
469.492 
439.923 
456.41 
454.181 
476.676 
461.924 
459.05 
451.61 
477.061 
494.594 
474.838 
486.081 
485.534 
458.133 
450.428 
482.406 
465.375 
454.193 
452.726 
479.739 
457.246 
469.669 
431.634 
472.162 
450.928 
430.39 
463.477 
464.034 
454.845 
436.637 
439.767 
460.804 
461.889 
444.25 
469.948 
449.938 
467.183 
452.659 
448.209 
430.907 
452.551 
443.712 
420.386 
467.085 
425.12 
436.875 
440.54 
463.864 
430.683 
475.4 
461.424 
429.8 
453.042 
437.267 
489.318 
472.161 
439.587 
453.16 
464.335 
431.219 
452.411 
453.076 
453.187 
436.068 
445.764 
465.935 
443.312 
414.378 
454.453 
436.677 
396.99 
430.89 
416.505 
456.078 
454.633 
430.772 
456.237 
472.893 
473.855 
478.179 
466.052 
470.508 
480.5 
469.104 
458.734 
460.609 
452.011 
475.738 
452.774 
438.224 
434.085 
455.41 
456.315 
433.498 
453.882 
447.807 
464.745 
447.554 
447.573 
463.971 
442.242 
458.095 
471.55 
489.216 
474.427 
487.815 
487.256 
483.859 
475.37 
466.907 
456.901 
453.109 
441.878 
444.937 
423.763 
433.677 
435.145 
448.657 
435.027 
465.933 
472.882 
477.523 
464.955 
465.161 
468.71 
484.487 
465.516 
475.078 
492.847 
505.258 
484.331 
462.68 
498.364 
504.979 
485.827 
480.09 
515.914 
531.885 
519.359 
500.091 
497.503 
470.111 
477.489 
471.476 
476.033 
452.577 
477.363 
492.271 
521.653 
489.236 
507.619 
511.27 
499.129 
517.646 
482.316 
490.949 
497.159 
454.698 
447.927 
480.386 
491.316 
468.119 
502.193 
470.211 
472.52 
481.184 
480.531 
492.767 
487.819 
449.918 
443.492 
445.476 
443.288 
498.631 
459.767 
429.415 
435.329 
434.632 
437.837 
443.812 
431.951 
441.703 
455.964 
468.183 
457.842 
482.145 
509.024 
505.512 
500.516 
502.521 
504.454 
499.459 
511.514 
480.181 
523.518 
477.474 
448.786 
476.92 
459.518 
497.811 
481.867 
475.25 
475.255 
493.594 
474.99 
536.435 
532.351 
511.609 
477.072 
489.751 
481.806 
493.158 
490.005 
489.71 
507.604 
491.557 
488.558 
500.068 
472.105 
474.042 
483.873 
525.436 
495.026 
505.155 
472.974 
498.318 
509.245 
504.105 
530.43 
522.994 
493.713 
499.618 
499.902 
526.152 
512.029 
524.381 
514.578 
531.076 
545.04 
534.36 
506.818 
518.645 
506.882 
504.682 
484.884 
488.118 
454.853 
475.671 
496.89 
505.327 
500.047 
487.353 
520.459 
501.65 
534.707 
536.062 
508.664 
507.616 
511.866 
540.043 
507.337 
524.954 
540.29 
496.927 
523.568 
531.353 
501.025 
489.82 
543.58 
521.443 
505.549 
516.016 
509.021 
508.49 
509.511 
499.969 
514.956 
518.326 
