ITEM: TIMESTEP
18000000
ITEM: NUMBER OF CELLS
1000
ITEM: BOX BOUNDS ss rr pp
0 0.004
0 0.01
-0.5 0.5
ITEM: CELLS f_temp1[*] 
279.69 
269.912 
289.499 
272.475 
281.141 
277.769 
283.728 
282.226 
274.64 
295.501 
301.352 
297.669 
321.832 
325.493 
305.886 
310.369 
309.311 
306.697 
298.807 
298.346 
300.081 
281.177 
293.644 
294.664 
289.533 
310.078 
295.654 
293.191 
289.939 
296.758 
312.491 
303.536 
284.025 
274.848 
300.392 
298.632 
302.624 
296.863 
310.551 
305.014 
294.094 
316.255 
300.286 
302.02 
285.688 
292.977 
286.585 
299.527 
295.072 
306.544 
304.927 
305.622 
295.259 
295.132 
316.562 
314.368 
303.001 
302.944 
304.756 
308.958 
303.752 
314.111 
290.423 
313.548 
301.82 
310.149 
313.956 
304.709 
303.007 
303.804 
310.172 
296.957 
299.928 
301.045 
288.615 
295.144 
315.023 
300.133 
319.156 
316.399 
328.542 
318.177 
307.333 
304.512 
286.649 
305.574 
295.114 
302.428 
305.104 
309.898 
303.331 
338.518 
301.092 
317.127 
312.4 
317.969 
331.893 
315.828 
313.953 
305.332 
303.076 
303.958 
307.525 
313.82 
310.468 
319.918 
327.717 
334.672 
320.665 
303.539 
309.524 
306.506 
295.11 
329.545 
324.722 
338.437 
323.89 
302.328 
318.71 
326.145 
309.745 
314.839 
328.22 
324.419 
322.781 
335.181 
336.441 
328.436 
316.094 
335.784 
327.26 
337.973 
328.402 
334.64 
328.681 
320.519 
343.32 
338.173 
343.242 
332.903 
327.305 
334.228 
332.319 
327.578 
334.929 
330.928 
357.966 
331.637 
350.236 
362.828 
348.399 
337.703 
335.488 
322.302 
340.859 
323.026 
327.2 
327.046 
325.431 
323.064 
336.579 
335.75 
316.308 
350.097 
341.381 
331.339 
338.832 
353.128 
334.386 
338.593 
341.897 
331.527 
340.62 
336.213 
325.745 
318.123 
323.595 
320.626 
321.578 
342.109 
341.941 
357.928 
352.162 
347.111 
339.348 
359.381 
359.334 
363.501 
347.166 
365.954 
358.137 
334.914 
336.675 
328.196 
311.011 
326.923 
323.512 
326.181 
335.628 
336.866 
332.187 
336.09 
336.029 
328.436 
335.843 
345.171 
351.061 
342.057 
348.464 
358.232 
332.274 
319.282 
325.917 
328.38 
320.92 
320.809 
329.638 
335.075 
334.379 
341.351 
336.679 
336.692 
350.242 
324.136 
323.782 
334.192 
335.504 
368.044 
330.013 
345.857 
365.694 
371.727 
351.827 
352.621 
348.266 
363.897 
378.52 
358.031 
359.901 
363.64 
379.611 
378.718 
364.375 
352.838 
358.532 
380.089 
365.824 
374.529 
367.917 
363.183 
379.586 
378.728 
381.903 
408.193 
366.88 
388.6 
409.269 
400.038 
376.051 
356.287 
369.727 
366.3 
367.118 
369.877 
356.058 
360.854 
336.666 
356.556 
354.966 
370.981 
359.309 
362.448 
386.713 
423.213 
408.616 
430.322 
399.009 
421.115 
382.779 
398.037 
408.265 
418.649 
399.1 
408.608 
405.566 
410.615 
391.124 
402.138 
407.293 
400.218 
404.919 
398.831 
388.173 
363.407 
362.464 
376.871 
371.825 
371.411 
367.243 
362.529 
353.054 
359.027 
360.797 
369.791 
372.702 
377.283 
384.749 
376.404 
390.011 
376.407 
376.497 
389.123 
394.168 
386.204 
382.56 
403.624 
381.001 
365.231 
378.833 
378.82 
357.918 
351.543 
376.521 
355.812 
362.302 
360.108 
374.339 
385.214 
392.532 
376.608 
399.996 
398.147 
394.181 
373.026 
383.596 
384.589 
371.848 
375.657 
376.008 
380.15 
374.958 
389.797 
363.85 
370.182 
372.363 
385.679 
392.053 
389.496 
390.102 
383.584 
387.147 
370.253 
382.147 
376.793 
369.573 
353.857 
392.117 
356.275 
368.504 
372.548 
364.324 
380.215 
359.174 
380.383 
388.497 
382.34 
395.605 
384.646 
399.066 
369.864 
377.768 
385.274 
386.5 
390.372 
395.782 
406.576 
389.633 
384.159 
395.395 
371.857 
374.397 
377.05 
382.552 
399.595 
390.788 
399.877 
370.14 
403.852 
385.115 
387.615 
379.614 
408.018 
398.802 
404.018 
400.923 
420.023 
405.877 
427.816 
368.784 
382.243 
395.79 
404.314 
389.753 
408.62 
385.393 
376.359 
366.479 
383.465 
428.915 
430.052 
412.244 
416.735 
416.791 
415.71 
415.225 
417.638 
405.413 
387.822 
411.084 
397.923 
416.943 
423.184 
405.464 
410.833 
400.975 
413.677 
400.099 
418.248 
427.589 
394.542 
429.114 
388.023 
409.14 
407.024 
415.148 
416.371 
405.92 
426.168 
393.838 
395.009 
404.275 
402.294 
374.661 
390.455 
400.992 
417.414 
401.45 
406.367 
416.514 
391.091 
409.493 
418.432 
404.895 
412.346 
406.299 
399.031 
419.425 
408.294 
389.309 
382.768 
403.324 
376.096 
399.774 
407.018 
410.245 
415.706 
427.387 
435.544 
402.312 
417.2 
420.591 
416.53 
407.371 
412.94 
399.437 
413.565 
395.936 
400.518 
418.684 
440.807 
430.814 
421.97 
446.986 
434.568 
415.327 
424.201 
426.903 
405.854 
419.252 
413.645 
400.334 
406.492 
403.265 
399.468 
415.524 
417.219 
417.645 
413.529 
418.319 
403.119 
402.741 
381.535 
402.784 
407.34 
394.903 
377.114 
386.415 
412.316 
422.023 
386.829 
400.928 
417.129 
396.575 
402.457 
401.341 
421.346 
392.625 
419.864 
399.002 
394.668 
415.15 
396.217 
468.36 
459.755 
436.182 
438.311 
425.019 
429.362 
418.39 
409.401 
405.77 
422.063 
429.021 
404.969 
405.132 
426.622 
432.211 
415.414 
413.048 
407.528 
424.539 
416.502 
443.54 
432.888 
452.534 
433.509 
413.447 
412.474 
414.027 
410.664 
436.408 
437.396 
406.052 
407.642 
420.743 
442.028 
451.863 
452.736 
459.542 
465.127 
446.996 
434.082 
462.917 
456.502 
459.888 
487.119 
474.452 
465.674 
460.229 
500.58 
467.744 
496.784 
465.456 
477.417 
474.975 
448.585 
423.078 
452.528 
430.719 
437.216 
442.314 
433.35 
434.023 
402.404 
414.809 
428.061 
441.831 
489.502 
470.565 
437.59 
478.475 
412.86 
417.454 
407.787 
407.687 
429.323 
460.179 
458.952 
440.269 
460.369 
449.178 
472.691 
446.227 
448.999 
469.256 
491.834 
463.868 
461.845 
448.572 
458.73 
477.1 
451.296 
465.249 
457.34 
454.376 
445.058 
460.654 
452.928 
433.054 
433.346 
447.713 
482.203 
456.663 
448.236 
428.58 
439.423 
443.797 
433.242 
440.829 
437.104 
442.986 
452.426 
453.499 
493.92 
472.43 
453.319 
422.911 
471.232 
456.848 
439.225 
453.674 
419.893 
430.659 
433.426 
405.059 
436.841 
428.088 
470.791 
443.775 
458.959 
449.313 
469.422 
432.199 
433.436 
411.276 
417.788 
421.247 
435.572 
451.421 
457.716 
439.001 
425.627 
436.963 
444.958 
425.453 
441.215 
416.605 
438.147 
437.737 
435.276 
418.606 
451.158 
415.931 
414.072 
440.521 
436.906 
451.38 
443.106 
437.772 
449.235 
462.437 
457.184 
455.427 
445.585 
471.473 
494.334 
476.034 
469.781 
459.112 
448.738 
456.848 
505.753 
469.194 
467.525 
457.651 
484.014 
457.585 
447.503 
482.715 
445.49 
457.508 
459.607 
443.96 
465.634 
471.453 
453.872 
453.578 
481.033 
436.669 
441.025 
423.784 
446.318 
438.75 
447.987 
417.917 
419.047 
435.492 
435.811 
426.003 
418.767 
431.767 
424.508 
444.001 
433.817 
448.625 
452.437 
449.498 
484.132 
487.348 
513.248 
463 
463.017 
446.95 
459.59 
450.819 
440.164 
475.327 
486.648 
478.783 
478.405 
478.669 
485.174 
482.617 
467.326 
465.468 
474.315 
492.965 
494.285 
489.177 
487.786 
467.699 
483.354 
486.148 
511.3 
496.666 
470.486 
491.015 
515.773 
510.806 
504.197 
474.182 
500.658 
475.792 
486.27 
493.606 
485.823 
470.525 
471.463 
498.001 
464.255 
482.692 
456.069 
461.961 
450.254 
452.306 
424.097 
449.641 
429.414 
444.482 
456.989 
428.966 
433.265 
462.637 
455.361 
445.424 
446.771 
439.903 
446.168 
425.005 
432.341 
434.536 
461.905 
473.603 
466.602 
427.82 
454.738 
436.445 
460.841 
492.067 
435.793 
477.234 
503.703 
470.266 
484.424 
497.095 
482.575 
514.094 
499.474 
514.108 
533.757 
506.127 
500.379 
495.836 
486.038 
465.59 
450.019 
480.283 
471.657 
476.819 
442.445 
428.402 
434.038 
417.169 
470.697 
474.145 
474.498 
498.549 
495.269 
503.539 
514.511 
500.048 
496.85 
474.88 
464.042 
455.007 
460.073 
459.182 
434.332 
452.131 
463.847 
471.878 
455.196 
457.593 
422.74 
446.733 
452.247 
441.966 
456.126 
454.009 
479.468 
437.17 
463.728 
452.896 
444.731 
463.719 
465.802 
457.443 
473.69 
475.664 
485.071 
473.191 
489.401 
465.041 
451.787 
466.882 
440.537 
443.794 
461.097 
486.742 
490.816 
491.559 
465.852 
482.749 
496.645 
493.072 
468.155 
500.764 
488.82 
482.255 
475.385 
479.965 
501.771 
482.133 
484.674 
479.459 
497.423 
455.23 
465.786 
490.168 
484.903 
491.079 
481.612 
482.98 
472.44 
447.656 
454.942 
466.228 
463.28 
462.823 
470.404 
485.884 
485.79 
479.941 
492.948 
474.671 
478.441 
501.825 
495.517 
500.981 
479.173 
464.119 
481.923 
483.663 
504.258 
493.331 
522.115 
479.458 
508.038 
470.913 
476.081 
466.551 
463.471 
490.913 
480.048 
480.036 
481.798 
485.048 
508.999 
479.797 
521.597 
487.359 
526.773 
529.897 
527.677 
483.017 
512.588 
505.769 
521.181 
498.366 
506.027 
498.216 
526.333 
532.393 
547.179 
544.822 
514.653 
556.408 
560.474 
568.014 
549.632 
539.87 
521.344 
530.946 
551.086 
541.926 
502.807 
521.45 
500.634 
505.415 
522.603 
525.19 
542.831 
507.596 
500.508 
548.62 
565.39 
566.728 
533.114 
516.391 
525.382 
547.406 
560.65 
571.419 
578.077 
532.46 
548.104 
555.945 
544.296 
526.678 
504.808 
542.04 
546.312 
533.149 
526.148 
539.623 
551.24 
517.259 
499.326 
540 
525.193 
530.015 
505.015 
535.521 
540.144 
524.812 
536.642 
542.633 
537.996 
565.628 
515.118 
