ITEM: TIMESTEP
89000000
ITEM: NUMBER OF CELLS
1000
ITEM: BOX BOUNDS ss rr pp
0 0.004
0 0.01
-0.5 0.5
ITEM: CELLS f_temp1[*] 
299.824 
303.241 
300.173 
299.579 
293.327 
291.124 
305.824 
297.854 
307.263 
304.657 
320.141 
329.244 
321.36 
313.259 
315.785 
317.165 
313.719 
314.577 
335.424 
323.796 
334.922 
324.736 
341.759 
326.92 
308.686 
331.736 
326.222 
304.044 
313.331 
300.469 
303.484 
322.258 
337.668 
347.176 
341.233 
332.285 
331.295 
327.354 
322.598 
323.801 
310.033 
338.138 
315.252 
324.661 
326.221 
329.17 
324.532 
315.571 
313.074 
305.338 
308.483 
325.755 
324.564 
313.528 
324.877 
344.208 
327.448 
319.101 
306.053 
313.668 
311.24 
318.179 
321.463 
327.944 
326.68 
321.066 
319.778 
318.578 
327.798 
323.817 
326.577 
322.495 
336.198 
349.485 
331.715 
358.698 
358.113 
349.997 
360.735 
364.289 
358.367 
379.204 
349.086 
352.474 
348.315 
336.809 
353.495 
342.838 
336.397 
316.799 
333.852 
317.723 
333.44 
349.998 
337.517 
337.854 
325.113 
331.908 
321.444 
320.29 
316.753 
305.996 
302.051 
300.275 
299.196 
339.197 
341.192 
351.414 
367.105 
352.846 
352.599 
356.834 
340.447 
353.521 
343.6 
351.595 
333.413 
335.009 
349.41 
327.243 
334.175 
331.568 
323.172 
317.268 
312.49 
326.206 
324.435 
349.012 
341.563 
346.691 
335.107 
312.944 
319.549 
322.805 
321.212 
340.216 
342.263 
338.422 
356.812 
346.26 
358.545 
332.336 
338.632 
349.415 
363.251 
366.331 
358.756 
345.511 
331.266 
336.357 
338.636 
348.121 
342.881 
348.359 
354.657 
334.532 
353.596 
347.582 
357.209 
354.751 
346.809 
348.784 
346.038 
330.981 
345.528 
345.695 
338.473 
338.735 
336.75 
326.759 
346.918 
335.673 
322.983 
335.801 
329.093 
316.108 
321.14 
346.812 
344.482 
326.064 
346.989 
336.772 
356.919 
342.773 
353.706 
339.998 
348.765 
342.524 
380.325 
345.502 
364.072 
376.013 
357.339 
366.62 
355.375 
361.21 
363.847 
374.381 
363.693 
362.386 
348.875 
357.028 
359.387 
338.757 
346.854 
346.716 
352.728 
346.565 
354.366 
353.693 
360.593 
364.75 
347.97 
330.851 
348.037 
342.431 
342.079 
345.171 
330.252 
332.309 
341.008 
329.795 
332.416 
353.619 
358.055 
354.434 
357.8 
330.224 
351.824 
357.149 
336.991 
343.462 
369.004 
354.68 
353.694 
343.016 
364.205 
354.301 
354.338 
362.713 
356.613 
367.312 
356.661 
351.646 
364.89 
349.945 
341.576 
354.944 
362.519 
353.951 
358.732 
349.092 
336.764 
352.334 
360.345 
350.61 
357.387 
383.474 
338.367 
352.958 
341.632 
357.657 
362.01 
353.871 
358.883 
371.545 
353.283 
379.25 
374.516 
367.757 
384.031 
353.245 
364.379 
358.417 
366.398 
358.036 
342.478 
356.109 
359.323 
366.934 
366.048 
363.478 
381.769 
372.49 
379.743 
375.936 
387.934 
376.169 
371.307 
375.54 
370.189 
382.046 
364.218 
339.915 
377.083 
384.572 
385.145 
402.476 
376.025 
384.016 
381.042 
384.053 
372.004 
393.781 
367.698 
389.067 
386.191 
381.136 
402.763 
373.9 
388.607 
381.628 
364.721 
369.375 
391.606 
378.29 
372.258 
393.168 
370.617 
369.437 
369.157 
380.297 
371.731 
366.72 
380.359 
365.408 
368.562 
367.676 
366.136 
389.204 
363.067 
373.478 
352.457 
373.478 
379.743 
389.458 
382.316 
380.484 
347.824 
375.682 
400.925 
380.793 
378.981 
385.158 
403.412 
385.364 
382.635 
356.159 
373.561 
399.734 
395.219 
389.034 
349.977 
378.526 
382.247 
393.947 
394.361 
393.193 
388.377 
386.449 
394.385 
414.677 
393.027 
368.916 
373.36 
372.693 
374.067 
357.917 
356.778 
381.475 
375.205 
399.048 
374.239 
360.512 
358.495 
375.002 
355.553 
374.477 
377.373 
364.819 
367.143 
374.776 
360.095 
399.406 
373.451 
362.206 
384.866 
386.579 
370.903 
386.184 
374.271 
397.755 
405.337 
392.148 
361.951 
380.164 
382.047 
376.456 
370.017 
379.143 
384.731 
370.765 
361.232 
366.813 
374.854 
390.428 
389.001 
404.024 
353.563 
366.068 
380.26 
404.051 
371.412 
366.943 
365.325 
364.471 
370.853 
395.134 
396.874 
391.248 
381.266 
383.636 
392.203 
388.425 
378.26 
361.244 
376.408 
368.237 
385.676 
382.052 
386.366 
443.707 
427.542 
419.66 
409.236 
403.713 
418.534 
419.987 
406.493 
401.783 
413.887 
394.804 
401.31 
396.579 
414.514 
393.439 
397.73 
410.544 
424.034 
424.889 
417.222 
421.515 
441.542 
450.18 
420.809 
409.93 
406.873 
405.104 
394.195 
405.395 
404.094 
417.452 
393.095 
396.865 
405.286 
414.811 
392.742 
391.433 
406.245 
416.729 
393.684 
397.682 
418.454 
419.884 
421.208 
401.631 
393.532 
407.163 
425.377 
426.561 
422.302 
412.716 
412.724 
386.629 
401.897 
401.094 
422.774 
413.482 
400.753 
416.053 
418.47 
413.925 
419.36 
414.699 
408.108 
391.163 
417.016 
384.316 
400.304 
386.144 
394.099 
414.59 
398.419 
407.678 
409.41 
383.954 
374.567 
388.125 
394.27 
400.442 
392.614 
379.269 
383.074 
373.043 
394.54 
387.304 
380.98 
396.536 
410.155 
390.224 
398.486 
387.405 
402.097 
397.899 
406.973 
401.665 
389.58 
431.393 
411.433 
415.836 
409.91 
408.753 
382.541 
401.121 
413.293 
394.981 
396.273 
394.742 
391.598 
377.06 
400.215 
390.689 
380.002 
387.005 
407.608 
418.785 
401.383 
412.649 
416.907 
413.826 
405.262 
413.181 
416.834 
410.369 
419.431 
423.243 
391.418 
401.54 
421.013 
411.572 
401.655 
421.218 
415.453 
414.059 
399.912 
399.345 
386.154 
376.396 
384.136 
394.749 
401.876 
424.749 
419.02 
424.207 
416.13 
394.07 
403.931 
402.959 
379.585 
385.532 
409.22 
395.219 
446.18 
418.311 
444.411 
442.544 
406.2 
389.46 
400.363 
391.68 
466.662 
462.549 
447.226 
447.84 
436.686 
439.139 
469.241 
450.983 
452.335 
455.017 
464.795 
438.4 
433.384 
434.339 
424.359 
417.014 
430.237 
423.595 
443.702 
428.98 
428.548 
446.69 
435.452 
450.596 
437.417 
426.791 
418.784 
441.316 
434.869 
428.359 
427.392 
420.334 
434.791 
431.687 
427.734 
430.883 
434.112 
429.609 
430.984 
410.577 
412.198 
418.141 
419.709 
442.451 
426.964 
438.087 
429.748 
396.905 
426.853 
434.35 
426.471 
430.124 
436.349 
426.985 
414.946 
447.342 
434.825 
455.655 
451.449 
462.659 
502.219 
468.387 
470.581 
505.717 
468.004 
464.864 
454.53 
457.887 
478.304 
466.607 
478.972 
458.72 
477.965 
459.558 
464.677 
466.781 
456.89 
438.996 
421.684 
437.659 
432.016 
435.269 
443.741 
431.529 
450.363 
414.692 
431.38 
415.232 
452.646 
485.879 
472.249 
415.723 
409.272 
415.196 
410.095 
392.198 
410.333 
413.229 
407.693 
445.294 
411.133 
403.06 
401.477 
435.335 
415.36 
419.688 
414.999 
437.652 
423.593 
432.504 
404.321 
419.025 
428.89 
426.483 
425.544 
455.312 
456.42 
431.166 
477.679 
463.323 
473.067 
485.628 
470.05 
455.535 
459.554 
456.968 
444.158 
468.674 
450.397 
468.954 
497.981 
495.119 
449.93 
468.716 
420.473 
435.004 
442.678 
435.403 
456.195 
450.547 
436.572 
435.467 
431.399 
437.051 
448.267 
416.678 
419 
433.7 
455.096 
421.113 
412.95 
404.094 
431.041 
442.309 
428.353 
411.768 
443.42 
419.132 
436.471 
446.729 
447.18 
459.543 
449.658 
428.989 
442.133 
428.034 
448.844 
451.296 
442.311 
456.899 
440.365 
463.335 
435.411 
425.077 
427.418 
451.091 
448.056 
454.819 
457.106 
448.71 
470.294 
477.369 
472.529 
486.136 
475.429 
480.385 
469.25 
464.301 
447.82 
442.113 
464.859 
472.356 
479.053 
514.667 
479.17 
472.462 
487.263 
479.517 
470.232 
491.69 
463.093 
453.065 
458.97 
453.319 
483.05 
433.146 
464.448 
458.926 
455.018 
489.255 
462.167 
467.266 
429.069 
426.23 
427.35 
449.085 
448.502 
440.227 
423.92 
421.251 
433.982 
404.224 
407.795 
410.366 
402.266 
438.515 
427.202 
456.103 
449.675 
504.529 
496.383 
491.914 
480.869 
430.489 
434.968 
430.689 
443.861 
435.497 
463.671 
427.963 
444.587 
449.841 
468.283 
462.851 
441.442 
443.108 
464.024 
484.537 
480.206 
481.665 
499.18 
465.989 
479.106 
458.946 
482.083 
480.842 
486.125 
511.979 
496.261 
500.082 
509.092 
506.347 
479.7 
515.532 
554.634 
524.66 
499.661 
474.847 
517.197 
497.533 
493.379 
488.454 
482.469 
502.232 
444.005 
483.341 
485.656 
493.555 
505.034 
487.921 
471.475 
502.46 
505.949 
475.656 
484.219 
485.977 
482.562 
465.061 
486.18 
476.909 
468.341 
493.342 
491.549 
454.241 
469.497 
474.914 
506.585 
513.662 
491.988 
498.68 
498.347 
490.444 
488.091 
502.661 
498.816 
504.965 
504.614 
516.185 
516.44 
539.298 
503.686 
489.016 
523.949 
507.318 
513.439 
502.097 
532.836 
480.691 
555.86 
575.611 
572.709 
554.578 
541.764 
545.098 
566.442 
565.567 
510.695 
521.83 
526.458 
526.032 
500.193 
505.006 
513.344 
508.666 
508.501 
542.983 
572.609 
564.918 
539.858 
576.132 
561.206 
549.247 
571.492 
546.61 
546.165 
491.606 
508.381 
476.483 
493.071 
485.701 
480.875 
489.854 
516.886 
490.41 
511.315 
502.791 
482.678 
468.845 
473.378 
465.837 
487.341 
483.295 
485.438 
464.651 
508.567 
511.435 
536.189 
556.987 
537.55 
518.273 
520.526 
530.079 
517.18 
530.857 
485.154 
478.401 
467.397 
470.084 
462.078 
469.441 
480.628 
481.944 
507.169 
491.775 
478.543 
503.309 
515.975 
483.909 
486.682 
479.479 
481.227 
478.531 
471.171 
481.474 
520.61 
497.807 
510.029 
483.161 
512.032 
501.356 
502.865 
514.757 
521.505 
504.02 
527.119 
507.469 
514.962 
505.934 
498.209 
537.186 
