ITEM: TIMESTEP
35000000
ITEM: NUMBER OF CELLS
1000
ITEM: BOX BOUNDS ss rr pp
0 0.004
0 0.01
-0.5 0.5
ITEM: CELLS f_temp1[*] 
302.577 
298.287 
292.822 
289.057 
289.963 
286.72 
290.223 
286.076 
286.225 
291.083 
285.025 
306.173 
299.372 
296.338 
293.937 
304.263 
289.435 
282.685 
306.086 
300.671 
290.418 
295.333 
304.983 
297.542 
295.327 
296.142 
316.031 
321.692 
310.112 
317.713 
311.719 
300.887 
314.495 
315.131 
314.997 
311.611 
310.973 
312.261 
314.78 
314.807 
324.794 
304.724 
315.34 
315.353 
298.783 
283.895 
300.194 
305.362 
291.924 
314.7 
309.331 
306.667 
310.464 
322.669 
303.793 
307.209 
304.751 
295.151 
305.882 
302.216 
309.315 
300.928 
320.33 
308.606 
319.748 
325.303 
314.963 
309.771 
293.575 
302.24 
316.273 
314.072 
302.241 
312.103 
312.593 
298.363 
317.645 
309.149 
312.922 
300.044 
326.399 
320.171 
327.636 
330.076 
310.847 
331.874 
315.685 
301.007 
307.845 
285.064 
305.718 
295.628 
303.715 
310.483 
325.596 
334.602 
330.71 
322.276 
332.275 
336.707 
355.176 
331.363 
347.338 
325.982 
347.547 
325.929 
348.403 
373.669 
351.2 
335.114 
355.835 
326.148 
340.996 
327.633 
324.946 
318.069 
325.831 
343.667 
339.645 
328.646 
310.52 
311.997 
297.318 
310.528 
316.472 
308.777 
325.215 
319.385 
304.354 
306.819 
303.759 
301.527 
313.277 
317.585 
307.748 
306.274 
340.577 
333.649 
347.374 
341.876 
330.238 
311.178 
320.55 
325.136 
329.804 
316.341 
305.886 
296.394 
323.492 
330.215 
330.827 
331.154 
319.35 
322.586 
313.178 
314.497 
335.116 
326.75 
324.538 
315.326 
322.041 
315.327 
312.284 
325.554 
320.957 
331.683 
341.844 
330.237 
338.488 
355.822 
351.137 
338.141 
354.772 
344.365 
329.43 
345.013 
335.384 
342.205 
321.861 
321.08 
304.794 
334.906 
297.976 
311.326 
310.703 
336.515 
325.595 
323.658 
331.542 
331.998 
344.474 
337.337 
323.398 
320.977 
312.173 
313.801 
326.212 
305.927 
329.298 
338.318 
331.872 
333.044 
334.698 
335.156 
361.283 
329.834 
322.972 
316.902 
331.097 
344.921 
340.732 
340.872 
343.886 
327.668 
322.497 
332.938 
338.22 
326.575 
328.241 
338.822 
327.669 
349.657 
345.143 
332.374 
338.329 
339.197 
355.348 
354.635 
333.039 
347.882 
361.416 
348.657 
367.753 
334.025 
348.428 
339.59 
351.259 
346.572 
349.871 
320.719 
345.367 
342.633 
333.038 
365.153 
364.245 
368.659 
339.981 
347.784 
347.199 
353.112 
365.457 
354.992 
372.339 
353.529 
353.781 
360.051 
364.216 
379.717 
349.175 
348.43 
348.06 
339.648 
329.11 
331.954 
335.769 
342.493 
343.975 
330.458 
339.567 
336.504 
346.318 
366.363 
386.498 
380.103 
357.614 
334.221 
379.17 
357.031 
359.509 
356.339 
358.468 
359.699 
342.839 
339.954 
358.922 
347.805 
344.586 
353.469 
361.327 
344.808 
366.503 
342.284 
342.045 
350.441 
360.315 
368.766 
379.066 
381.939 
357.368 
365.842 
399.377 
386.506 
425.87 
409.084 
413.277 
364.866 
379.444 
387.871 
382.405 
371.06 
372.71 
373.146 
374.153 
338.348 
352.32 
380.343 
361.97 
390.538 
405.487 
405.439 
413.663 
410.691 
416.141 
405.15 
408.666 
387.181 
398.773 
387.572 
393.52 
398.754 
380.592 
394.385 
400.804 
398.752 
382.201 
383.017 
394.435 
404.43 
395.428 
407.163 
395.711 
395.052 
405.373 
387.661 
401.283 
381.964 
379.649 
389.235 
390.165 
397.661 
394.204 
382.417 
374.562 
388.017 
376.015 
379.085 
399.914 
395.429 
385.031 
383.789 
383.963 
373.174 
402.226 
377.418 
396.738 
374.084 
366.741 
371.262 
358.795 
375.996 
365.427 
364.87 
380.708 
360.756 
380.169 
378.271 
371.871 
347.69 
382.728 
357.832 
361.354 
353.011 
348.788 
336.571 
333.858 
326.017 
352.134 
357.036 
350.65 
366.305 
356.236 
363.455 
352.648 
353.886 
364.908 
367.584 
350.329 
361.054 
342.232 
345.355 
360.954 
355.407 
351.049 
348.212 
355.034 
355.824 
349.562 
359.448 
389.656 
342.237 
353.917 
347.312 
351.63 
373.204 
387.037 
370.754 
378.622 
371.012 
382.017 
390.276 
384.456 
402.674 
364.358 
371.91 
371.338 
372.272 
381.15 
390.004 
403.219 
364.074 
395.037 
380.514 
381.801 
377.497 
363.277 
360.295 
358.503 
375.056 
382.029 
367.265 
363.42 
377.784 
382.222 
381.545 
395.132 
394.976 
394.497 
382.783 
383.723 
401.765 
400.557 
396.487 
383.398 
383.913 
399.695 
395.278 
382.215 
391.654 
390.702 
380.832 
383.558 
369.111 
396.626 
387.184 
383.593 
408.266 
394.984 
393.565 
397.649 
397.411 
382.292 
386.163 
404.049 
390.081 
415.944 
395.882 
406.663 
436.284 
448.532 
459.418 
464.263 
433.894 
442.851 
432.204 
466.609 
446.189 
424.802 
427.125 
442.445 
431.372 
405.126 
391.01 
403.731 
393.756 
383.447 
421.202 
407.105 
403.369 
417.339 
423.438 
435.151 
412.416 
402.768 
416.484 
398.823 
417.991 
414.817 
442.841 
406.482 
422.774 
423.305 
408.083 
404.287 
433.644 
395.116 
399.457 
412.94 
413.096 
418.523 
406.697 
430.303 
411.33 
443.821 
427.601 
452.61 
443.96 
446.976 
415.704 
418.225 
391.925 
410.151 
421.274 
430.412 
423.702 
447.245 
439.21 
431.929 
442.42 
436.712 
425.887 
409.334 
426.467 
444.617 
438.089 
454.588 
443.732 
473.649 
457.076 
475.818 
448.624 
466.628 
430.056 
411.113 
448.017 
430.546 
426.804 
434.927 
424.958 
443.341 
439.116 
443.212 
432.323 
419.478 
451.488 
439.611 
433.574 
415.852 
428.238 
463.779 
475.091 
486.032 
487.451 
484.226 
486.767 
481.834 
475.363 
461.542 
455.461 
458.971 
447.916 
442.799 
434.472 
428.275 
472.571 
466.06 
410.912 
424.348 
473.889 
448.42 
461.282 
426.499 
447 
424.511 
435.908 
439.099 
437.01 
417.21 
409.24 
414.321 
429.065 
413.172 
402.4 
408.502 
389.172 
424.209 
406.947 
414.921 
420.107 
428.862 
433.147 
433.077 
454.63 
436.213 
437.625 
451.086 
461.583 
444.878 
445.496 
457.744 
488.218 
445.492 
444.204 
496.686 
479.376 
464.301 
476.637 
453.557 
473.762 
453.599 
425.331 
452.617 
459.709 
472.145 
459.577 
465.99 
450.862 
421.015 
426.218 
448.931 
433.113 
441.363 
432.769 
441.844 
448.341 
439.701 
418.343 
425.882 
410.814 
427.485 
424.614 
408.036 
413.332 
427.881 
419.922 
439.386 
432.864 
428.499 
435.6 
461.384 
470.892 
463.806 
455.525 
450.669 
459.058 
451.586 
448.889 
480.532 
475.331 
502.366 
486.19 
455.548 
448.947 
447.562 
423.672 
446.505 
450.61 
437.021 
437.22 
476.192 
443.616 
453.829 
446.381 
465.38 
452.569 
444.456 
427.757 
476.761 
469.682 
465.785 
443.525 
467.428 
453.787 
479.609 
443.863 
433.805 
413.625 
431.319 
413.855 
430.085 
436.14 
446.547 
454.568 
448.538 
449.329 
454.502 
453.282 
452.474 
452.03 
450.546 
419.91 
440.994 
459.195 
456.354 
462.637 
449.812 
471.077 
474.69 
476.197 
486.106 
437.307 
471.745 
442.371 
418.947 
455.324 
453.057 
442.572 
470.225 
460.672 
450.641 
436.622 
472.53 
464.521 
458.064 
454.416 
489.495 
445.024 
449.189 
460.06 
449.54 
451.469 
438.361 
455.668 
448.32 
436.486 
487.344 
483.716 
462.628 
471.641 
453.323 
445.747 
457.616 
449.873 
459.815 
478.874 
468.818 
499.923 
491.194 
484.461 
482.845 
497.751 
485.089 
442.041 
461.063 
454.771 
417.938 
465.684 
479.536 
439.623 
451.186 
451.934 
455.697 
477.686 
459.57 
520.998 
500.156 
524.954 
462.563 
487.69 
472.741 
441.312 
434.445 
461.729 
444.334 
438.471 
452.84 
437.289 
472.795 
483.089 
463.163 
492.083 
499.748 
490.002 
509.698 
494.91 
503.742 
516.095 
508.093 
489.513 
494.753 
480.429 
457.617 
480.927 
507.1 
466.916 
478.833 
463.977 
450.811 
437.963 
474.466 
451.017 
430.244 
452.913 
465.945 
475.518 
444.441 
453.622 
484.954 
447.909 
476.083 
466.668 
479.746 
479.54 
478.684 
465.588 
475.763 
497.027 
467.134 
486.726 
511.252 
475.637 
475.478 
478.47 
467.548 
484.204 
482.112 
505.679 
457.522 
451.849 
455.832 
455.564 
483.137 
480.781 
516.762 
494.018 
483.442 
485.169 
512.531 
482.669 
477.256 
488.932 
488.816 
498.874 
460.915 
487.88 
466.955 
472.09 
475.525 
496.464 
499.078 
488.432 
478.629 
489.272 
475.17 
437.686 
447.878 
447.478 
441.906 
439.59 
417.67 
438.56 
499.358 
485.4 
464.494 
466.982 
494.024 
475.388 
481.796 
473.156 
448.249 
448.688 
480.573 
485.162 
447.116 
456.871 
447.709 
459.603 
451.599 
425.424 
461.224 
456.312 
474.242 
483.944 
473.802 
478.042 
486.99 
458.798 
462.851 
448.31 
462.525 
477.453 
447.757 
460.342 
468.899 
488.729 
491.094 
502.433 
509.454 
520.695 
505.193 
480.789 
491.059 
446.084 
490.931 
488.615 
482.034 
497.314 
504.293 
494.412 
490.541 
465.254 
488.174 
481.097 
504.457 
500.95 
503.515 
503.032 
520.955 
499.894 
465.855 
460.932 
430.046 
477.327 
474.715 
503.702 
488.794 
514.152 
481.144 
483.446 
476.974 
470.644 
478.279 
470.693 
488.769 
477.739 
479.086 
477.75 
470.229 
447.173 
454.339 
438.792 
487.997 
485.352 
510.348 
500.738 
531.581 
536.858 
552.212 
555.172 
558.626 
536.654 
498.216 
510.854 
543.182 
549.761 
449.848 
458.068 
500.463 
508.211 
473.639 
500.94 
507.951 
505.555 
484.483 
519.211 
502.543 
529.856 
548.038 
499.168 
534.473 
491.969 
494.259 
507.422 
502.317 
497.092 
526.059 
543.642 
525.323 
503.552 
506.674 
518.414 
511.181 
508.838 
503.248 
507.251 
500.147 
490.756 
521.259 
474.967 
531.044 
501.247 
