ITEM: TIMESTEP
66000000
ITEM: NUMBER OF CELLS
1000
ITEM: BOX BOUNDS ss rr pp
0 0.004
0 0.01
-0.5 0.5
ITEM: CELLS f_temp1[*] 
299.047 
309.833 
296.298 
300.726 
291.719 
295.556 
300.893 
292.324 
293.587 
299.252 
308.123 
301.093 
292.604 
299.297 
294.162 
308.468 
303.158 
306.805 
284.394 
281.683 
286.716 
310.912 
310.786 
301.081 
302.026 
302.012 
319.731 
327.561 
310.733 
320.376 
301.849 
310.034 
303.786 
305.669 
306.436 
334.384 
306.65 
334.641 
320.389 
331.417 
311.595 
322.787 
317.615 
311.963 
310.011 
295.697 
311.56 
306.442 
311.594 
304.401 
303.276 
311.459 
294.086 
312.678 
305.599 
308.176 
307.703 
334.749 
331.234 
324.782 
344.79 
348.394 
324.997 
318.339 
321.862 
313.753 
319.978 
323.06 
309.605 
311.86 
313.252 
304.843 
314.288 
313.618 
337.83 
306.736 
309.492 
331.368 
313.161 
315.699 
300.779 
316.334 
317.119 
307.675 
295.924 
315.066 
315.187 
318.515 
313.018 
316.928 
321.931 
326.426 
310.432 
343.764 
334.207 
353.331 
348.254 
337.035 
339.246 
328.231 
319.863 
357.622 
366.587 
365.78 
355.978 
334.671 
343.941 
339.794 
329.239 
332.925 
357.412 
340.336 
339.569 
353.958 
362.171 
359.668 
344.556 
332.318 
332.99 
347.141 
322.687 
318.371 
329.724 
335.708 
332.241 
341.014 
357.427 
341.527 
334.486 
342.444 
350.968 
330.091 
354.002 
341.872 
368.139 
367.251 
344.907 
362.54 
335.435 
335.001 
325.248 
334.832 
348.473 
356.137 
346.902 
329.495 
355.454 
337.176 
340.025 
327.237 
327.32 
333.376 
318.894 
325.704 
323.608 
314.313 
326.234 
313.957 
353.611 
335.284 
356.562 
333.249 
336.999 
312.896 
306.948 
336.516 
332.895 
306.661 
312.631 
309.655 
329.094 
313.277 
326.884 
314.968 
335.298 
346.054 
336.076 
339.677 
347.838 
348.739 
354.833 
337.382 
342.975 
356.75 
349.575 
351.928 
341.958 
354.265 
327.963 
341.429 
325.161 
347.445 
336.917 
343.009 
340.22 
319.919 
345.569 
362.195 
358.99 
352.049 
337.694 
343.489 
328.149 
335.793 
352.912 
345.408 
351.917 
342.082 
361.534 
358.139 
374.948 
329.562 
345.155 
347.756 
359.428 
362.404 
349.634 
363.226 
374.33 
357.127 
348.573 
353.281 
368.59 
348.943 
350.892 
351.487 
362.606 
359.033 
362.556 
351.077 
379.212 
362.644 
366.955 
381.374 
370.046 
373.215 
361.288 
373.431 
374.127 
366.212 
382.918 
388.755 
381.012 
357.428 
346.32 
353.848 
376.103 
360.623 
366.225 
352.15 
354.597 
370.652 
353.235 
364.848 
357.643 
362.152 
365.016 
351.964 
355.382 
353.827 
340.25 
367.674 
369.854 
359.601 
381.617 
365.45 
389.489 
361.767 
381.585 
380.239 
358.081 
361.282 
364.696 
361.469 
356.883 
375.122 
358.797 
349.01 
365.016 
369.786 
362.118 
350.633 
352.665 
365.936 
371.634 
367.657 
366.048 
375.971 
384.696 
389.959 
383.082 
367.488 
368.52 
362.081 
368.163 
382.669 
371.117 
363.9 
345.566 
365.852 
386.171 
392.673 
394.259 
380.617 
373.572 
335.982 
342.435 
352.837 
362.535 
375.853 
363.012 
379.511 
391.153 
392.509 
366.443 
396.888 
363.263 
392.698 
354.543 
357.438 
351.677 
355.498 
340.809 
350.175 
362.461 
347.136 
353.897 
361.387 
357.909 
346.477 
351.104 
347.662 
397.386 
374.188 
379.032 
369 
360.004 
375.224 
362.928 
364.256 
404.052 
381.137 
393.169 
407.13 
407.761 
413.183 
425.297 
399.817 
422.398 
444.021 
419.72 
365.914 
382.312 
384.337 
398.607 
386.523 
380.083 
379.441 
378.754 
368.048 
381.439 
371.319 
384.67 
418.836 
427.068 
423.269 
412.81 
407.708 
409.939 
407.704 
404.108 
393.784 
428.412 
437.538 
422.378 
413.375 
411.495 
434.202 
437.843 
439.648 
425.189 
410.71 
413.575 
421.364 
393.893 
427.835 
383.495 
377.575 
381.384 
379.178 
406.362 
402.077 
405.469 
398.148 
407.349 
400.105 
408.701 
410.441 
398.731 
396.106 
419.18 
375.026 
402.372 
386.371 
384.156 
390.291 
389.119 
400.324 
405.399 
401.021 
404.431 
388.982 
383.821 
397.703 
394.904 
403.22 
392.319 
408.503 
407.863 
395.932 
401.129 
430.705 
419.165 
422.259 
395.353 
404.109 
434.334 
418.638 
410.995 
416.028 
412.567 
426.826 
414.061 
411.619 
431.563 
426.803 
414.094 
408.527 
433.761 
411.079 
412.665 
396.049 
425.161 
407.635 
419.192 
411.67 
373.833 
392.936 
386.834 
415.328 
400.372 
412.854 
414.051 
430.976 
448.398 
423.87 
435.522 
432.69 
419.617 
426.877 
437.81 
439.169 
426.409 
441.117 
429.722 
434.715 
424.717 
421.925 
438.737 
432.75 
433.311 
425.82 
422.254 
428.77 
429.7 
408.062 
395.053 
419.32 
403.299 
397.125 
381.749 
383.885 
400.242 
396.463 
403.095 
402.111 
399.093 
429.677 
407.92 
407.244 
406.228 
426.157 
426.612 
433.68 
405.274 
401.632 
419.769 
424.671 
430.366 
403.719 
420.035 
435.701 
451.628 
440.508 
445.291 
426.311 
440.412 
432.109 
440.346 
404.784 
427.499 
422.338 
424.563 
411.417 
402.915 
384.753 
377.644 
389.016 
398.72 
386.125 
375.497 
395.748 
421.333 
442.657 
420.495 
408.913 
418.115 
420.378 
413.751 
408.557 
418.749 
408.605 
391.875 
418.888 
414.362 
422.389 
445.742 
416.142 
418.707 
386.816 
401.014 
420.15 
422.503 
410.139 
416.596 
382.57 
415.801 
413.491 
398.888 
395.125 
399.47 
400.653 
397.067 
407.615 
404.345 
439.869 
419.37 
412.063 
413.502 
403.838 
404.494 
417.518 
435.514 
428.223 
417.523 
396.981 
447.945 
437.183 
435.601 
438.295 
441.674 
443.747 
441.571 
446.084 
445.455 
428.056 
452.183 
449.095 
457.276 
450.817 
439.32 
447.9 
401.846 
429.934 
419.521 
420.417 
435.148 
439.202 
433.271 
446.436 
425.908 
415.104 
423.186 
428.513 
413.088 
412.097 
447.181 
411.432 
425.412 
444.763 
442.135 
453.554 
428.045 
453.055 
436.919 
448.87 
438.386 
417.14 
421.908 
446.688 
436.642 
424.758 
434.686 
418.981 
426.907 
471.817 
466.446 
456.096 
464.873 
450.815 
446.203 
451.641 
427.514 
438.276 
449.139 
447.205 
463.626 
450.518 
466.352 
458.549 
435.414 
437.676 
438.258 
418.835 
436.357 
431.004 
445.937 
453.621 
490.77 
504.713 
525.328 
463.88 
478.444 
475.622 
445.235 
465.794 
434.686 
431.059 
432.936 
425.567 
459.75 
427.212 
446.378 
469.832 
451.012 
452.526 
427.294 
453.389 
433.183 
419.848 
426.414 
450.946 
454.848 
433.269 
423.964 
426.361 
427.945 
441.368 
415.104 
427.084 
434.635 
425.925 
402.315 
412.176 
408.006 
430.64 
402.242 
402.615 
393.051 
433.726 
433.532 
409.179 
420.981 
403.285 
400.779 
398.093 
386.955 
392.748 
415.453 
404.015 
411.093 
383.721 
397.386 
395.428 
411.444 
428.07 
429.439 
430.375 
423.373 
415.232 
410.748 
419.506 
448.831 
430.262 
449.225 
447.699 
457.065 
425.515 
425.474 
431.11 
462.973 
426.326 
413.944 
450.799 
449.374 
466.267 
450.743 
450.658 
452.407 
465.003 
447.925 
463.374 
483.805 
472.247 
426.976 
472.452 
461.352 
423.965 
435.433 
443.338 
445.939 
450.775 
461.404 
451.138 
409 
432.663 
420.295 
469.534 
448.789 
423.694 
455.369 
445.509 
433.215 
421.779 
413.011 
405.498 
420.208 
427.158 
426.968 
433.132 
452.99 
430.718 
437.172 
445.952 
430.115 
430.783 
434.732 
410.79 
435.095 
424.76 
398.777 
428.831 
438.145 
466.214 
427.885 
449.19 
437.421 
436.59 
433.918 
423.513 
443.176 
467.599 
464.256 
503.478 
516.592 
539.015 
471.764 
483.412 
496.08 
475.133 
477.594 
434.461 
456.249 
502.963 
447.071 
458.855 
497.9 
486.002 
524.159 
501.424 
479.257 
554.969 
514.755 
517.843 
531.222 
507.31 
500.392 
487.155 
478.473 
481.233 
475.039 
473.74 
471.641 
477.45 
483.001 
476.29 
475.229 
463.136 
472.938 
462.821 
455.726 
454.854 
472.166 
482.58 
465.158 
467.994 
484.869 
457.719 
458.285 
437.642 
443.795 
474.925 
454.076 
449.482 
442.979 
473.28 
448.688 
427.962 
445.362 
458.508 
461.816 
431.141 
461.056 
462.295 
447.097 
431.276 
426.148 
454.946 
437.044 
441.251 
481.893 
459.354 
487.207 
466.77 
471.875 
499.617 
452.762 
467.435 
478.416 
450.772 
509.408 
541.819 
504.504 
509.377 
459.685 
478.412 
465.222 
461.734 
438.323 
414.966 
495.371 
485.53 
467.058 
483.98 
486.195 
520.64 
537.168 
559.946 
570.891 
521.436 
467.276 
484.332 
492.741 
447.817 
483.78 
499.067 
472.425 
496.116 
495.224 
490.685 
487.646 
475.774 
459.635 
480.285 
488.045 
466.383 
525.809 
509.404 
529.045 
524.467 
490.545 
508.412 
541.937 
486.73 
483.24 
499.486 
509.706 
485.49 
514.655 
488.353 
474.319 
489 
513.573 
514.495 
496.929 
501.394 
496.509 
504.449 
496.774 
492.153 
521.318 
510.943 
509.505 
518.822 
475.8 
490.514 
503.888 
463.061 
523.613 
520.262 
498.681 
520.023 
536.026 
522.459 
481.495 
504.208 
512.472 
496.431 
532.673 
531.096 
503.959 
522.73 
519.39 
510.313 
515.348 
484.7 
526.036 
513.137 
512.073 
508.757 
488.5 
496.114 
519.14 
536.494 
539.712 
500.867 
510.262 
498.838 
502.112 
512.109 
531.497 
515.486 
514.641 
520.589 
530.679 
526.491 
549.526 
522.29 
532.777 
556.487 
516.746 
523.079 
518.162 
526.557 
495.142 
543.696 
516.167 
521.776 
512.206 
521.478 
556.518 
502.866 
532.873 
518.774 
523.106 
521.485 
492.628 
505.91 
504.369 
513.222 
520.931 
492.983 
536.685 
547.092 
491.361 
506.928 
492.514 
500.631 
487.845 
505.414 
488.652 
501.876 
499.781 
486.14 
481.124 
525.491 
479.161 
477.629 
498.554 
536.69 
