ITEM: TIMESTEP
70000000
ITEM: NUMBER OF CELLS
1000
ITEM: BOX BOUNDS ss rr pp
0 0.004
0 0.01
-0.5 0.5
ITEM: CELLS f_temp1[*] 
293.142 
307.378 
309.67 
295.285 
298.964 
320.406 
314.733 
307.819 
314.164 
325.266 
329.601 
323.808 
318.397 
314.795 
323.363 
315.351 
325.286 
305.574 
305.721 
323.507 
321.222 
312.331 
308.091 
322.689 
319.348 
331.77 
308.333 
315.399 
297.857 
313.486 
320.529 
293.161 
306.588 
303.834 
303.483 
327.283 
337.678 
315.22 
316.368 
302.246 
317.499 
312.588 
308.628 
317.331 
314.482 
326.338 
316.93 
326.879 
312.211 
313.074 
306.353 
303.03 
303.504 
299.908 
296.861 
306.831 
302.533 
297.912 
313.384 
304.505 
304.058 
303.772 
298.138 
290.47 
295.059 
307.901 
332.327 
315.879 
325.111 
323.421 
317.298 
306.061 
304.227 
311.892 
305.238 
316.002 
301.087 
299.106 
327.128 
328.679 
329.337 
314.135 
320.054 
333.726 
333.04 
325.557 
337.462 
321.189 
315.722 
312.39 
324.37 
327.52 
327.942 
304.127 
311.659 
303.414 
293.525 
314.249 
323.717 
300.605 
314.664 
309.302 
320.938 
303.789 
301.958 
304.439 
311.183 
317.999 
318.793 
323.42 
319.969 
314.509 
318.55 
324.671 
318.592 
341.548 
332.496 
328.247 
322.854 
315.674 
338.348 
352.718 
339.269 
329.448 
354.913 
333.591 
328.746 
336.464 
340.442 
322.788 
324.195 
325.363 
321.503 
318.337 
314.557 
317.583 
333.072 
323.548 
339.628 
346.646 
373.485 
377.148 
361.01 
348.481 
345.875 
340.255 
336.075 
323.9 
332.147 
353.14 
349.634 
350.023 
334.44 
353.307 
357.861 
351.801 
386.767 
369.134 
345.288 
353.842 
354.568 
352.792 
345.091 
376.215 
357.488 
351.415 
369.473 
339.481 
334.776 
334.595 
330.992 
341.19 
350.321 
363.495 
371.194 
364.385 
384.812 
366.36 
374.162 
372.274 
344.437 
333.371 
348.274 
335.463 
326.325 
332.647 
328.247 
303.82 
325.513 
326.578 
299.663 
318.135 
315.423 
330.962 
333.7 
332.303 
333.351 
320.65 
342.474 
331.768 
336.555 
344.707 
342.061 
345.461 
348.964 
351.04 
354.799 
344.11 
330.461 
341.708 
346.954 
352.204 
364.137 
367.176 
341.823 
329.641 
347.96 
352.083 
340.025 
323.164 
333.508 
343.591 
357.347 
374.679 
372.465 
370.698 
358.373 
350.315 
336.38 
340.238 
351.344 
359.586 
374.532 
372.35 
364.11 
374.303 
379.829 
390.066 
378.371 
380.55 
377.028 
370.946 
373.253 
378.423 
380.97 
411.457 
392.397 
385.728 
373.81 
410.031 
381.65 
375.576 
381.71 
378.088 
363.735 
362.48 
372.05 
359.995 
383.977 
404.534 
415.291 
399.981 
373.937 
380.619 
378.317 
389.881 
381.407 
394.051 
373.433 
380.667 
384.51 
379.16 
387.009 
367.468 
353.975 
372.202 
369.311 
390.187 
365.948 
341.68 
355.578 
360.561 
356.762 
369.472 
367.619 
354.11 
379.059 
389.96 
366.347 
362.695 
346.938 
349.823 
341.201 
378.352 
378.14 
348.488 
369.884 
374.846 
364.533 
385.835 
369.052 
365.803 
348.871 
331.722 
345.364 
380.991 
354.87 
359.087 
369.481 
391.399 
371.716 
371.885 
365.299 
355.634 
380.12 
357.511 
357.089 
328.943 
354.729 
370.334 
351.728 
352.275 
352.108 
368.853 
356.159 
339.482 
347.282 
359.266 
357.698 
359.897 
357.736 
343.023 
356.325 
357.498 
370.776 
372.139 
379.595 
379.6 
393.788 
414.926 
406.749 
403.876 
411.442 
384.804 
393.149 
403.235 
392.351 
405.605 
402.033 
414.525 
405.88 
378.727 
391.452 
369.972 
372.039 
380.919 
375.496 
366.876 
350.021 
359.791 
374.381 
387.234 
389.946 
408.844 
400.698 
415.978 
409.824 
386.621 
402.321 
362.066 
385.264 
370.344 
381.592 
393.412 
387.211 
391.821 
370.837 
390.144 
417.651 
393.839 
403.031 
381.284 
390.254 
402.881 
390.868 
416.76 
408.752 
415.128 
396.751 
406.423 
389.171 
384.431 
379.577 
369.913 
375.622 
396.727 
397.934 
394.459 
375.407 
388.594 
362.365 
361.41 
373.273 
388.588 
371.033 
404.276 
397.127 
411.236 
409.992 
394.336 
386.3 
381.863 
395.029 
369.016 
409.478 
397.131 
390.923 
399.969 
398.84 
375.639 
392.928 
380.357 
403.555 
364.204 
399.78 
388.733 
428.431 
405.058 
399.614 
424.988 
395.739 
388.074 
437.422 
401.63 
409.857 
418.448 
422.345 
397.314 
419.856 
404.279 
401.729 
400.042 
402.715 
392.659 
406.983 
413.391 
393.912 
409.501 
405.123 
396.682 
403.189 
415.469 
410.598 
426.931 
367.465 
400.617 
406.909 
394.136 
398.946 
394.108 
389.468 
375.009 
396.31 
387.166 
387.344 
412.144 
382.072 
349.801 
372.942 
374.844 
371.245 
376.042 
360.909 
379.026 
379.681 
353.028 
361.655 
400.029 
382.007 
409.287 
417.691 
401.266 
390.877 
399.791 
414.444 
423.113 
420.805 
396.407 
401.246 
413.766 
424.555 
424.031 
415.2 
364.521 
344.986 
365.787 
369.34 
380.707 
389.739 
398.922 
416.816 
400.028 
419.461 
415.722 
427.71 
452.607 
419.981 
441.396 
434.754 
412.426 
426.276 
430.504 
411.353 
432.508 
415.788 
408.236 
416.434 
419.006 
420.651 
405.818 
423.58 
402.093 
410.184 
396.016 
419.825 
408.069 
424.066 
427.803 
400.059 
426.937 
408.509 
424.694 
406.455 
443.945 
448.637 
421.367 
430.046 
468.811 
451.9 
403.776 
420.637 
416.094 
402.935 
409.212 
391.108 
476.85 
473.368 
433.122 
460.003 
439.098 
453.07 
487.552 
441.4 
513.945 
474.679 
457.683 
435.675 
443.558 
421.738 
411.033 
417.039 
432.292 
450.657 
441.412 
430.879 
429.099 
434.499 
417.453 
389.677 
412.001 
412.272 
426.211 
421.773 
442.339 
401.706 
403.097 
391.701 
380.035 
368.819 
380.19 
368.249 
362.449 
385.035 
384.661 
390.347 
400.714 
413.842 
426.157 
431.862 
432.484 
415.282 
395.708 
395.677 
393.459 
421.796 
385.673 
399.492 
410.232 
405.567 
405.795 
418.915 
406.829 
422.934 
427.399 
405.856 
405.012 
420.775 
415.543 
409.098 
404.011 
414.105 
421.345 
456.662 
453.616 
447.069 
452.196 
421.911 
433.933 
424.865 
478.279 
443.882 
440.676 
470.506 
460.627 
459.367 
467.475 
475.611 
473.904 
498.548 
447.33 
478.5 
459.339 
438.729 
462.072 
439.884 
454.679 
435.711 
440.799 
430.388 
447.171 
440.42 
444.129 
438.487 
414.125 
442.477 
440.446 
415.771 
416.454 
419.159 
442.859 
417.741 
437.145 
450.846 
435.051 
439.597 
458.994 
461.208 
447.402 
456.368 
455.913 
469.157 
452.739 
452.283 
499.344 
488.64 
478.053 
462.21 
457.337 
509.338 
471.969 
460.812 
484.986 
464.012 
445.488 
480.942 
474.293 
472.442 
484.197 
493.402 
441.116 
461.198 
495.377 
462.293 
478.104 
492.81 
483.314 
472.868 
489.933 
481.361 
478.214 
478.305 
476.745 
435.408 
449.211 
469.242 
474.571 
465.954 
462.138 
453.317 
477.932 
477.817 
458.07 
489.838 
460.306 
479.78 
442.572 
439.056 
454.191 
436.819 
452.169 
456.463 
430.269 
418.629 
418.77 
425.89 
427.803 
445.06 
447.655 
436.034 
427.242 
423.375 
435.877 
410.585 
425.27 
462.096 
436.023 
419.18 
414.399 
411.465 
445.296 
454.771 
435.875 
435.258 
462.616 
455.431 
434.069 
451.037 
446.046 
430.862 
430.518 
422.978 
410.353 
415.264 
406.857 
404.179 
435.88 
428.504 
446.483 
432.371 
442.43 
424.367 
435.643 
437.928 
446.33 
451.05 
441.694 
447.053 
441.227 
442.087 
443.189 
423.406 
440.234 
446.214 
458.463 
483.141 
476.39 
479.135 
486.336 
503.655 
493.306 
484.161 
488.628 
461.566 
456.344 
457.47 
477.842 
462.803 
473.6 
494.397 
509.289 
496.918 
500.527 
477.92 
488.85 
469.298 
455.233 
476.193 
446.788 
490.027 
489.375 
441.315 
473.24 
471.088 
457.331 
469.853 
472.023 
478.888 
474.936 
439.209 
460.737 
462.288 
461.621 
459.923 
482.754 
476.028 
480.744 
447.969 
459.27 
460.665 
465.994 
493.322 
463.143 
455.633 
462.289 
487.393 
494.219 
488.87 
476.082 
464.393 
460.2 
458.3 
459.067 
456.554 
499.052 
501.377 
494.288 
487.025 
475.513 
484.438 
472.955 
455.688 
450.701 
467.869 
475.885 
487.116 
492.975 
489.477 
461.794 
480.575 
475.925 
463.698 
449.593 
462.025 
482.125 
460.271 
483.245 
489.452 
484.685 
466.213 
455.304 
483.94 
478.34 
507.039 
501.806 
480.276 
491.786 
503.108 
520.857 
506.123 
512.676 
495.587 
486.395 
481.001 
531.081 
515.607 
526.019 
497.416 
491.805 
467.611 
470.321 
499.807 
494.855 
519.427 
491.369 
478.965 
508.19 
473.77 
478.074 
511.331 
490.85 
510.33 
507.022 
517.515 
524.108 
537.04 
505.058 
465.885 
463.014 
482.756 
446.99 
453.355 
480.11 
470.236 
464.603 
458.163 
462.025 
450.951 
449.944 
482.824 
484.025 
486.075 
474.921 
436.31 
494.119 
476.435 
501.941 
498.721 
503.423 
489.828 
496.694 
467.131 
465.837 
451.89 
461.246 
505.59 
477.9 
490.82 
515.144 
465.831 
472.231 
491.844 
480.561 
482.65 
503.546 
499.689 
478.825 
485.439 
477.607 
513.763 
490.413 
475.26 
481.597 
472.655 
446.351 
492.778 
466.51 
487.272 
487.486 
491.057 
478.21 
479.396 
516.872 
532.746 
499.649 
509.07 
489.351 
506.736 
529.709 
522.82 
499.397 
483.128 
488.494 
505.171 
503.385 
484.861 
463.823 
475.817 
464.459 
449.488 
454.083 
479.352 
500.25 
495.073 
487.035 
504.731 
520.668 
525.589 
544.596 
494.949 
502.443 
513.649 
513.054 
491.615 
488.237 
498.862 
514.867 
478.434 
503.267 
504.763 
481.179 
501.708 
510.283 
517.115 
479.125 
516.464 
543.945 
535.996 
548.961 
536.13 
537.437 
520.492 
512.654 
535.238 
552.019 
497.032 
488.687 
490.18 
457.762 
479.969 
507.528 
