ITEM: TIMESTEP
43000000
ITEM: NUMBER OF CELLS
1000
ITEM: BOX BOUNDS ss rr pp
0 0.004
0 0.01
-0.5 0.5
ITEM: CELLS f_temp1[*] 
317.992 
327.871 
326.281 
310.229 
327.094 
311.599 
285.301 
310.188 
312.693 
312.927 
320.864 
290.753 
303.339 
287.78 
299.711 
302.201 
311.354 
319.923 
318.358 
319.443 
310.076 
309.89 
320.403 
313.713 
309.939 
310.259 
323.341 
307.752 
294.183 
295.112 
312.899 
330.96 
321.236 
324.909 
315.576 
305.914 
323.054 
344.267 
333.767 
308.06 
315.14 
317.036 
317.011 
327.162 
335.639 
303.433 
314.795 
324.56 
329.286 
333.652 
318.792 
324.816 
312.718 
311.582 
309.239 
313.478 
314.237 
284.418 
310.567 
308.975 
317.93 
304.493 
292.54 
304.326 
314.466 
339.774 
320.215 
330.876 
318.268 
299.767 
318.053 
316.264 
328.708 
331.238 
347.387 
346.355 
339.871 
349.298 
312.871 
324.031 
324.619 
308.383 
319.887 
310.111 
317.503 
312.533 
303.988 
314.022 
339.867 
300.793 
316.254 
306.835 
296.738 
299.43 
316.7 
311.273 
314.302 
308.741 
300.414 
318.149 
303.294 
290.841 
302.032 
314.435 
314.92 
328.064 
346.24 
329.866 
315.832 
309.597 
330.286 
328.548 
321.064 
339.683 
363.89 
341.649 
333.928 
329.532 
325.569 
327.199 
321.308 
329.095 
329.123 
325.678 
320.751 
313.092 
332.233 
329.428 
330.147 
317.236 
312.933 
334.499 
323.381 
337.476 
339.622 
359.775 
330.181 
345.405 
319.029 
321.858 
332.132 
322.563 
311.755 
314.596 
330.883 
343.728 
337.22 
331.802 
329.448 
308.475 
334.461 
318.5 
343.393 
325.761 
341.115 
336.486 
332.15 
356.43 
331.174 
333.584 
332.732 
337.281 
339.693 
339.974 
346.265 
351.678 
334.229 
332.805 
331.448 
314.828 
322.903 
351.555 
339.522 
345.986 
345.685 
347.731 
359.381 
341.54 
346.454 
331.727 
348.026 
323.714 
317.077 
347.381 
324.482 
326.885 
333.564 
337.509 
319.824 
326.538 
334.201 
340.843 
336.851 
329.901 
340.366 
348.934 
353.446 
343.576 
345.963 
341.927 
343.889 
337.4 
343.141 
348.895 
326.927 
352.263 
343.813 
351.581 
358.148 
356.342 
347.883 
335.683 
332.742 
319.396 
324.099 
314 
322.08 
321.899 
320.312 
326.924 
341.108 
336.158 
338.729 
349.672 
344.213 
340.927 
338.501 
356.445 
343.606 
355.685 
349.927 
338.838 
330.556 
338.176 
315.136 
318.506 
333.963 
351.292 
335.226 
334.009 
349.299 
342.45 
347.383 
353.87 
349.747 
338.558 
340.519 
338.182 
342.828 
365.194 
340.054 
339.826 
340.315 
343.252 
346.175 
371.149 
359.337 
347.614 
349.376 
341.254 
348.347 
344.366 
356.347 
323.78 
348.567 
347.34 
337.97 
335.296 
349.861 
341.402 
348.034 
361.842 
355.336 
342.512 
342.665 
340.22 
347.009 
365.808 
372.911 
375.86 
363.771 
372.547 
393.929 
361.01 
389.68 
388.708 
386.469 
370.371 
372.922 
372.951 
384.806 
385.963 
372.911 
374.523 
358.699 
360.126 
365.505 
359.89 
388.161 
381.337 
347.12 
357.198 
370.891 
379.912 
408.18 
375.148 
377.458 
395.087 
382.842 
383.609 
367.278 
364.687 
371.415 
363.984 
345.257 
360.466 
362.733 
363.158 
406.472 
404.923 
396.343 
379.12 
397.957 
419.257 
416.388 
396.735 
397.994 
378.563 
402.483 
401.57 
373.513 
363.046 
364.216 
354.714 
358.499 
354.179 
368.618 
368.263 
364.955 
382.989 
363.242 
382.71 
383.546 
368.987 
391.247 
397.069 
364.959 
409.323 
376.696 
382.301 
397.523 
352.495 
369.547 
365.681 
383.594 
362.568 
351.812 
332.625 
367.155 
361.454 
345.731 
355.388 
337.734 
364.842 
385.017 
347.519 
359.373 
366.972 
351.188 
364.12 
374.086 
389.093 
384.006 
379.412 
388.833 
396.788 
381.38 
387.733 
382.492 
384.902 
383.086 
415.086 
389.205 
400.291 
384.927 
401.991 
388.202 
382.692 
374.005 
359.538 
361.845 
368.46 
370.567 
362.802 
366.201 
380.228 
368.884 
389.728 
407.63 
390.78 
387.689 
366.235 
394.03 
385.487 
388.376 
388.193 
393.866 
371.453 
374.876 
386.267 
377.383 
363.277 
362.18 
363.244 
371.681 
363.1 
387.568 
369.336 
373.184 
380.713 
373.332 
384.595 
370.16 
378.288 
391.593 
381.428 
372.53 
374.427 
394.064 
379.534 
395.056 
394.073 
370.455 
358.64 
389.864 
388.328 
377.826 
367.402 
383.144 
375.058 
376.754 
399.673 
378.13 
378.749 
376.625 
385.025 
369.737 
372.572 
377.327 
375.682 
378.271 
393.446 
380.726 
379.133 
401.905 
377.539 
372.96 
386.01 
407.966 
376.644 
395.378 
380.143 
401.74 
406.486 
406.64 
394.349 
391.081 
378.76 
406.564 
383.23 
386.219 
375.616 
387.744 
408.7 
358.274 
396.737 
390.165 
388.993 
343.816 
388.282 
395.498 
401.117 
372.71 
382.801 
391.341 
381.149 
364.452 
387.633 
384.54 
375.325 
361.14 
393.815 
398.721 
386.377 
418.278 
401.51 
389.116 
387.491 
375.227 
393.669 
414.832 
420.087 
394.334 
417.011 
400.094 
390.133 
385.626 
413.616 
406.232 
394.509 
406.405 
412.852 
418.066 
409.976 
400.027 
387.078 
384.966 
394.17 
391.238 
386.843 
389.084 
401.288 
437.357 
427.006 
410.983 
422.622 
426.612 
449.12 
446.827 
443.224 
438.951 
438.175 
425.607 
440.65 
418.362 
435.898 
415.897 
441.737 
440.36 
397.164 
428.411 
398.515 
424.893 
401.271 
433.695 
464.646 
448.341 
452.977 
441.659 
483.625 
460.853 
444.319 
469.298 
479.022 
459.299 
453.958 
496.635 
444.704 
447.774 
443.093 
425.397 
418.571 
422.066 
431.858 
435.041 
420.057 
425.697 
424.909 
410.726 
419.492 
427.978 
415.06 
400.25 
417.695 
412.32 
420.038 
434.795 
421.844 
421.96 
444.708 
411.075 
418.733 
422.399 
445.925 
456.152 
450.604 
422.792 
418.481 
394.994 
408.177 
414.432 
435.512 
413.369 
394.564 
435.793 
462.984 
451.62 
417.978 
419.899 
429.686 
443.131 
443.046 
449.838 
451.107 
436.767 
452.117 
459.811 
438.324 
435.169 
450.076 
454.735 
439.583 
449.068 
418.465 
419.521 
427.639 
413.361 
435.915 
439.345 
435.405 
468.792 
442.293 
436.383 
438.527 
444.525 
453.02 
420.866 
412.094 
409.677 
418.572 
406.333 
408.053 
421.854 
442.061 
429.21 
387.222 
416.826 
396.983 
411.567 
406.831 
406.102 
426.79 
420.838 
421.331 
423.71 
422.621 
408.499 
412.865 
419.924 
434.97 
423.193 
402.379 
436.091 
446.81 
439.445 
421.357 
430.352 
424.764 
400.369 
407.88 
432.946 
439.367 
441.04 
442.63 
422.513 
396.675 
420.376 
436.976 
417.164 
422.879 
432.843 
435.783 
436.322 
437.787 
427.893 
433.037 
432.49 
449.452 
469.227 
430.438 
420.116 
418.632 
470.488 
428.332 
482.283 
449.593 
433.588 
452.748 
458.278 
424.542 
420.97 
431.07 
410.008 
432.02 
428.95 
434.508 
441.369 
423.562 
427.037 
426.052 
447.824 
421.57 
409.37 
420.619 
437.265 
447.871 
444.871 
440.718 
439.634 
475.394 
471.578 
468.062 
460.851 
452.688 
460.716 
447.661 
446.254 
456.918 
445.91 
432.319 
443.921 
487.404 
458.267 
454.802 
455.085 
424.162 
417.78 
442.953 
497.417 
456.01 
422.53 
406.805 
413.534 
426.188 
421.584 
426.671 
456.507 
440.655 
448.803 
451.081 
446.247 
441.368 
434.571 
446.13 
443.804 
449.622 
458.816 
473.861 
480.118 
463.782 
460.814 
443.693 
458.641 
450.83 
492.72 
448.409 
452.027 
448.328 
437.298 
453.395 
464.2 
461.874 
479.481 
453.323 
455.15 
459.339 
451.354 
442.044 
460.29 
454.233 
453.636 
452.385 
441.994 
453.881 
468.868 
441.579 
429.287 
418.988 
439.634 
443.505 
437.654 
426.513 
445.24 
447.117 
463.756 
445.635 
450.15 
444.744 
474.382 
445.632 
463.079 
474.296 
463.12 
475.105 
467.898 
499.267 
471.627 
486.073 
493.59 
470.284 
494.735 
480.682 
483.219 
483.338 
479.071 
474.111 
484.809 
478.978 
472.701 
473.842 
491.057 
467.084 
468.419 
473.378 
446.472 
455.916 
465.564 
477.597 
462.269 
449.5 
449.643 
460.604 
454.229 
475.751 
451.346 
444.32 
449.465 
467.218 
448.42 
447.468 
465.278 
475.756 
451.762 
462.353 
474.305 
486.64 
490.388 
465.385 
470.087 
441.08 
465.416 
442.204 
445.638 
426.549 
436.414 
478.578 
457.032 
449.864 
457.772 
458.261 
449.207 
410.442 
438.729 
445.777 
471.341 
467.192 
475.739 
456.934 
459.271 
475.233 
468.187 
460.94 
466.057 
479.822 
506.554 
517.01 
520.265 
531.722 
504.588 
506.772 
448.942 
469.126 
483.733 
488.162 
496.563 
506.135 
488.773 
493.429 
478.691 
506.03 
490.332 
473.662 
520.408 
523.515 
487.941 
511.066 
496.313 
508.507 
501.014 
500.874 
512.009 
515.275 
504.355 
525.515 
512.336 
518.713 
483.904 
508.464 
491 
484.065 
505.305 
524.776 
444.517 
486.631 
460.4 
464.274 
478.792 
472.105 
469.389 
474.872 
471.744 
513.541 
486.031 
506.963 
507.378 
501.505 
478.992 
505.314 
486.064 
494.993 
510.665 
506.364 
489.848 
486.966 
518.154 
488.844 
493.421 
503.626 
504.22 
513.092 
495.03 
499.419 
479.205 
498.721 
509.524 
511.684 
521.795 
492.486 
504.104 
482.99 
475.506 
486.706 
477.004 
474.885 
496.345 
517.977 
512.932 
519.521 
531.386 
496.009 
503.941 
473.486 
461.371 
472.89 
542.766 
565.428 
532.57 
530.594 
541.824 
478.816 
521.916 
494.624 
501.588 
475.452 
450.16 
486.47 
467.399 
479.2 
510.18 
488.425 
489.741 
514.539 
507.222 
462.498 
511.222 
506.222 
541.364 
494.826 
493.267 
495.452 
532.085 
557.003 
535.786 
532.882 
548.267 
534.068 
529.588 
496.822 
494.098 
448.13 
483.324 
493.432 
482.855 
521.169 
489.811 
476.8 
504.5 
514.65 
497.765 
493.48 
