ITEM: TIMESTEP
16000000
ITEM: NUMBER OF CELLS
1000
ITEM: BOX BOUNDS ss rr pp
0 0.004
0 0.01
-0.5 0.5
ITEM: CELLS f_temp1[*] 
304.097 
309.045 
320.283 
328.262 
320.096 
322.64 
316.664 
300.665 
297.778 
307.643 
314.041 
313.91 
303.117 
299.66 
297.619 
287.205 
302.115 
310.721 
307.332 
321.528 
340.74 
315.69 
304.685 
315.34 
304.12 
325.737 
329.12 
317.478 
320.675 
298.702 
309.189 
308.114 
315.729 
301.5 
303.714 
312 
308.004 
328.004 
325.942 
296.274 
324.636 
319.808 
324.895 
312.596 
328.008 
332.869 
324.585 
320.077 
314.922 
316.921 
339.574 
320.528 
302.386 
319.9 
323.365 
308.416 
324.58 
315.565 
318.559 
323.051 
311.785 
311.805 
323.588 
318.513 
336.771 
331.876 
333.32 
334.125 
349.865 
330.937 
313.996 
319.741 
312.985 
318.3 
329.286 
323.858 
320.917 
339.261 
334.51 
315.013 
345.229 
345.388 
343.827 
341.126 
346.479 
329.375 
312.836 
325.787 
343.575 
351.115 
310.181 
333.484 
343.376 
334.381 
319.563 
314.361 
310.919 
311.179 
313.141 
311.311 
313.053 
308.315 
301.116 
299.553 
297.416 
310.675 
310.192 
313.424 
298.968 
322.035 
317.447 
332.826 
322.594 
350.601 
340.731 
337.186 
351.167 
319.188 
314.139 
316.09 
311.48 
311.162 
316.712 
303.836 
298.206 
321.401 
312.712 
320.619 
334.57 
339.63 
332.79 
331.891 
332.797 
337.688 
358.384 
337.715 
355.781 
360.836 
351.822 
354.348 
346.619 
350.546 
361.315 
340.059 
333.021 
336.375 
357.537 
355.855 
350.591 
321.884 
342.582 
325.511 
327.5 
344.041 
343.252 
341.311 
362.328 
356.085 
353.506 
356.816 
377.829 
365.438 
364.54 
345.811 
337.735 
366.2 
361.006 
345.501 
339.546 
357.936 
336.947 
348.926 
347.838 
356.178 
335.428 
333.554 
334.349 
342.647 
331.867 
344.942 
357.288 
349.916 
357.804 
377.205 
361.271 
331.506 
349.488 
361.767 
336.821 
336.08 
344.093 
343.461 
355.912 
325.656 
339.78 
341.301 
355.007 
329.037 
328.812 
341.287 
335.328 
342.643 
351.28 
347.667 
385.112 
349.265 
362.687 
400.285 
372.294 
371.734 
375.221 
347.122 
345.466 
356.019 
353.08 
344.172 
344.047 
348.141 
352.898 
335.024 
361.841 
330.031 
333.479 
347.983 
351.781 
334.158 
352.397 
399.559 
379.444 
378.697 
368.901 
408.74 
383.555 
387.93 
369.146 
373.012 
372.213 
372.263 
374.902 
345.426 
363.311 
359.588 
343.595 
356.945 
357.55 
361.536 
361.514 
353.561 
363.439 
359.116 
348.803 
338.364 
346.34 
371.683 
385.286 
368.625 
370.199 
352.3 
355.505 
365.583 
379.511 
359.687 
362.099 
372.579 
358.336 
378.328 
375.836 
376.934 
379.002 
357.638 
350.551 
352.949 
355.937 
364.121 
363.431 
359.283 
357.165 
346.785 
351.173 
381.829 
358.138 
356.82 
371.561 
358.259 
376.643 
349.679 
346.541 
364.67 
358.278 
350.122 
346.049 
358.262 
369.985 
354.651 
342.067 
352.786 
344.797 
342.657 
347.879 
331.703 
330.34 
332.59 
356.128 
361.536 
371.81 
357.973 
352.131 
372.168 
380.536 
360.617 
349.116 
348.197 
345.192 
360.601 
346.204 
375.6 
363.885 
365.411 
363.389 
371.043 
383.598 
381.547 
365.814 
382.67 
365.9 
359.526 
389.163 
403.288 
411.996 
404.557 
401.75 
401.074 
386.114 
379.746 
380.293 
393.141 
389.875 
391.825 
405.823 
387.129 
391.704 
409.589 
415.024 
420.927 
429.296 
434.673 
449.893 
415.816 
415.482 
433.926 
411.54 
363.599 
386.336 
383.025 
354.844 
356.943 
357.47 
374.134 
378.767 
416.729 
395.151 
379.861 
404.209 
429.414 
419.264 
417.8 
425.33 
437.791 
428.018 
465.866 
432.988 
468.018 
475.333 
432.408 
438.573 
407.909 
392.822 
398.793 
387.694 
388.822 
388.864 
377.093 
389.583 
386.134 
377.162 
348.457 
415.058 
425.609 
417.694 
412.454 
410.087 
399.375 
432.945 
429.481 
444.745 
460.13 
431.349 
411.554 
379.197 
397.298 
396.81 
396.461 
400.574 
415.065 
437.175 
412.208 
419.233 
414.004 
378.252 
412.87 
394.897 
401.429 
374.92 
377.902 
402.467 
363.634 
381.666 
375.435 
383.592 
384.955 
395.109 
413.798 
414.8 
401.023 
390.376 
385.761 
408.849 
380.076 
392.396 
398.547 
379.253 
365.813 
372.551 
356.579 
366.354 
369.971 
405.584 
403.451 
418.753 
433.543 
440.137 
394.641 
427.193 
409.635 
422.073 
372.705 
382.653 
366.784 
387.28 
377.107 
352.355 
372.46 
358.655 
363.378 
421.364 
414.446 
425.374 
430.137 
431.318 
405.648 
390.834 
411.428 
413.854 
428.497 
439.332 
445.367 
427.186 
409.521 
407.792 
388.954 
394.337 
401.738 
389.056 
398.014 
398.819 
419.02 
384.229 
406.717 
404.128 
390.307 
371.878 
351.069 
363.088 
361.828 
353.231 
365.048 
363.177 
385.403 
388.131 
384.056 
380.633 
377.861 
383.184 
390.368 
417.792 
429.592 
411.852 
412.555 
402.635 
406.415 
394.413 
396.098 
393.458 
402.896 
378.815 
386.815 
392.472 
399.283 
410.034 
415.33 
424.758 
413.924 
398.726 
392.29 
412.335 
406.892 
418.626 
400.131 
413.336 
385.764 
421.063 
411.764 
447.617 
440.597 
440.548 
446.225 
424.02 
432.716 
455.727 
432.421 
440.697 
454.691 
448.179 
440.771 
447.995 
414.171 
373.529 
368.632 
399.006 
429.099 
457.969 
436.966 
442.034 
442.929 
422.706 
401.696 
405.545 
396.207 
406.362 
392.724 
365.31 
398.987 
419.761 
394.284 
373.395 
405.952 
399.931 
395.453 
435.133 
432.895 
403.877 
428.988 
417.247 
411.008 
409.179 
443.104 
419.643 
434.458 
463.679 
427.239 
433.385 
420.802 
429.556 
404.853 
401.406 
419.261 
414.107 
415.886 
426.816 
421.714 
410.553 
407.084 
390.006 
401.549 
384.481 
376.541 
418.187 
431.676 
445.64 
433.814 
385.107 
396.105 
415.149 
408.393 
403.021 
424.985 
415.493 
394.528 
394.5 
399.134 
410.928 
387.545 
403.342 
430.645 
387.329 
397.515 
378.52 
408.153 
410.126 
436.202 
416.471 
427.162 
441.514 
445.444 
464.401 
448.873 
457.015 
449.604 
451.898 
454.739 
460.019 
434.109 
432.778 
424.198 
459.057 
428.331 
398.561 
407.426 
428.244 
434.225 
432.159 
428.215 
430.402 
435.601 
421.03 
429.144 
432.072 
432.22 
429.687 
441.267 
442.165 
414.951 
423.784 
418.038 
432.754 
428.255 
439.283 
432.992 
417.642 
439.409 
434.605 
430.882 
458.617 
442.86 
428.334 
465.687 
473.099 
440.489 
451.371 
427.756 
443.244 
467.573 
445.051 
464.795 
473.664 
452.941 
460.356 
454.065 
459.688 
436.143 
442.939 
441.853 
451.889 
463.055 
440.607 
467.585 
471.482 
482.916 
495.447 
473.253 
455.74 
472.915 
442.207 
467.957 
456.999 
446.185 
437.43 
444.795 
474.12 
436.635 
453.596 
444.087 
454.49 
457.392 
428.904 
440.711 
424.999 
423.101 
400.099 
408.63 
449.793 
442.424 
429.478 
452.845 
443.884 
447.14 
465.251 
489.539 
463.585 
458.63 
474.591 
443.293 
469.376 
472.161 
444.213 
463.736 
458.774 
466.714 
422.98 
454.633 
439.577 
473.818 
451.772 
452.285 
456.36 
458.3 
445.403 
400.217 
423.057 
422.415 
425.047 
460.85 
447.377 
457.047 
412.597 
432.153 
424.328 
411.924 
392.022 
405.156 
421.667 
409.916 
414.855 
415.758 
390.432 
423.108 
431.119 
425.719 
426.477 
421.763 
437.986 
419.683 
430.948 
412.82 
413.228 
435.766 
421.002 
454.097 
448.157 
434.085 
431.276 
469.604 
446.976 
454.518 
444.122 
456.417 
473.935 
460.389 
496.401 
465.127 
473.613 
453.044 
454.294 
458.414 
469.817 
488.537 
458.469 
468.874 
452.67 
501.862 
502.971 
485.781 
482.919 
470.848 
479.386 
467.014 
486.915 
480.344 
483.87 
485.715 
482.152 
448.967 
455.231 
466.504 
445.912 
469.084 
472.088 
461.779 
471.309 
473.71 
457.067 
458.182 
454.101 
443.807 
451.624 
452.633 
452.503 
464.809 
442.31 
454.682 
457.142 
447.583 
450.045 
449.852 
437.287 
430.855 
441.394 
438.297 
452.176 
450.232 
447.181 
444.259 
467.946 
448.241 
453.659 
443.237 
469.804 
441.382 
456.412 
476.848 
470.313 
450.546 
449.028 
436.721 
454.342 
461.79 
462.807 
475.764 
430.614 
415.267 
445.551 
453.182 
470.185 
464.59 
472.464 
462.548 
490.714 
474.822 
496.313 
488.934 
516.886 
490.442 
480.609 
491.249 
450.051 
500.159 
491.858 
497.04 
501.635 
471.402 
483.095 
471.213 
473.731 
468.566 
471.638 
460.533 
498.686 
460.693 
495.281 
457.158 
434.559 
469.279 
472.873 
495.95 
505.024 
492.409 
484.736 
459.488 
447.857 
452.529 
476.974 
506.62 
469.86 
482.465 
483.232 
494.302 
461.827 
445.686 
481.171 
478.671 
478.551 
461.048 
464.115 
460.741 
465.684 
478.631 
497.182 
462.853 
474.822 
452.287 
463.136 
459.932 
467.317 
499.792 
491.176 
489.442 
491.582 
496.279 
478.904 
500.304 
495.375 
496.499 
514.377 
512.534 
462.379 
509.754 
491.158 
472.512 
461.804 
463.418 
439.597 
455.719 
449.592 
472.469 
468.552 
475.661 
441.092 
480.461 
487.494 
477.163 
489.103 
495.394 
463.031 
462.617 
489.811 
474.508 
456.181 
439.274 
458.122 
449.141 
435.12 
422.896 
452.714 
463.369 
446.701 
454.198 
438.832 
430.388 
459.099 
439.366 
431.336 
440.025 
447.677 
460.403 
447.919 
469.409 
474.176 
473.721 
486.628 
488.314 
473.462 
469.79 
466.987 
457.546 
476.421 
483.674 
438.527 
445.056 
457.275 
489.507 
465.483 
469.193 
470.91 
469.732 
456.615 
481.172 
495.271 
472.224 
471.096 
497.842 
491.257 
485.25 
510.087 
509.336 
504.253 
499.969 
492.127 
476.828 
483.319 
471.223 
472.216 
491.453 
476.062 
494.393 
489.252 
497.591 
501.137 
496.927 
514.862 
503.512 
