ITEM: TIMESTEP
21000000
ITEM: NUMBER OF CELLS
1000
ITEM: BOX BOUNDS ss rr pp
0 0.004
0 0.01
-0.5 0.5
ITEM: CELLS f_temp1[*] 
302.469 
292.391 
283.236 
281.634 
281.395 
285.568 
284.581 
291.245 
294.065 
282.457 
298.378 
298.643 
300.337 
309.769 
288.398 
300.186 
301.977 
287.618 
300.529 
330.797 
315.937 
324.328 
270.751 
302.511 
303.453 
309.25 
310.718 
304.462 
320.598 
333.552 
300.981 
312.071 
314.078 
299.63 
296.618 
306.142 
286.984 
292.544 
288.563 
308.316 
280.418 
290.251 
282.627 
285.1 
277.93 
300.879 
297.281 
300.658 
310.359 
296.621 
309.139 
294.969 
308.187 
312.891 
308.912 
330.368 
295.575 
306.367 
324.504 
300.256 
312.827 
290.162 
286.106 
288.02 
298.473 
311.07 
307.561 
307.364 
322.065 
316.061 
312.273 
285.349 
310.936 
289.611 
304.428 
300.552 
306.383 
310.784 
296.434 
310.629 
298.802 
308.774 
297.813 
308.597 
310.575 
293.926 
303.868 
294.138 
306.391 
315.362 
333.593 
316.31 
318.73 
306.083 
320.809 
318.996 
308.807 
319.354 
311.899 
315.863 
313.575 
312.793 
337.505 
316.03 
315.757 
314.374 
284.995 
300.632 
306.422 
321.314 
309.591 
321.81 
336.41 
318.974 
318.684 
313.488 
294.275 
314.012 
312.685 
315.779 
318.723 
336.155 
335.047 
332.883 
332.177 
331.227 
333.824 
329.879 
321.05 
332.986 
334.683 
327.935 
339.111 
334.151 
317.103 
320.295 
314.073 
325.621 
330.874 
325.521 
334.682 
344.824 
348.058 
331.883 
332.22 
318.988 
337.597 
329.746 
344.552 
360.063 
338.623 
340.194 
345.107 
321.289 
341.125 
329.841 
346.094 
345.855 
339.589 
351.594 
348.455 
340.472 
341.935 
362.919 
360.868 
354.475 
367.288 
357.4 
330.408 
356.761 
342.361 
342.819 
328.981 
350.611 
328.509 
337.644 
336.504 
326.827 
346.296 
329.028 
315.96 
343.606 
315.467 
322.954 
340.493 
336.813 
340.323 
317.444 
316.881 
335.888 
343.732 
348.631 
323.598 
325.952 
336.32 
321.192 
349.331 
332.607 
332.879 
347.965 
341.768 
350.317 
339.786 
324.494 
397.664 
386.726 
380.211 
383.426 
395.049 
389.545 
372.53 
337.234 
340.28 
353.075 
348.356 
368.293 
350.025 
353.8 
363.205 
367.336 
362.104 
364.619 
364.941 
357.683 
380.591 
372.174 
373.321 
401.636 
375.038 
372.977 
375.898 
390.908 
378.599 
366.275 
381.131 
385.145 
383.562 
393.769 
372.289 
382.736 
360.431 
367.148 
364.445 
363.765 
351.993 
333.725 
355.312 
359.265 
364.264 
374.328 
402.453 
416.773 
394.227 
389.8 
407.592 
376.809 
370.634 
371.44 
360.779 
350.879 
359.338 
343.446 
378.236 
367.333 
393.583 
367.958 
373.854 
382.644 
373.836 
403.749 
413.574 
381.96 
378.825 
392.454 
381.802 
393.918 
380.529 
373.418 
363.299 
397.305 
405.902 
397.609 
385.957 
396.278 
402.943 
378.09 
370.098 
381.993 
358.156 
387.343 
351.266 
371.623 
385.021 
396.342 
370.094 
359.48 
345.253 
346.844 
351.291 
370.447 
372.305 
366.321 
363.425 
338.627 
353.334 
391.779 
378.842 
359.416 
380.754 
385.553 
362.928 
391.954 
362.592 
391.363 
391.413 
383.49 
371.007 
355.222 
352.686 
339.787 
337.213 
341.559 
347.806 
368.405 
375.546 
383.964 
372.267 
360.116 
371.131 
381.149 
389.584 
381.907 
392.559 
396.125 
361.294 
370.359 
391.755 
410.355 
389.267 
420.312 
346.571 
351.332 
358.496 
336.93 
348.908 
342.531 
308.249 
332.785 
354.801 
349.649 
335.979 
401.584 
398.899 
380.652 
386.224 
366.421 
369.687 
359.362 
370.039 
386.429 
388.327 
374.1 
363.15 
354.551 
344.484 
357.633 
338.148 
348.829 
352.98 
375.158 
360.989 
389.008 
381.281 
384.714 
385.57 
388.012 
397.153 
399.872 
397.695 
399.353 
406.419 
409.73 
399.901 
381.891 
384.975 
370.967 
378.174 
383.147 
384.206 
394.936 
380.093 
408.778 
408.221 
419.012 
403.79 
397.483 
392.3 
384.345 
373.565 
371.99 
383.035 
381.201 
388.902 
386.747 
389.064 
379.708 
398.408 
367.754 
380.954 
423.705 
424.307 
448.625 
393.804 
398.667 
397.127 
413.834 
414.798 
421.281 
425.049 
420.232 
425.202 
420.768 
421.761 
416.061 
386.125 
398.345 
393.234 
423.304 
392.885 
395.856 
407.665 
390.153 
391.877 
392.11 
404.584 
392.241 
381.393 
393.636 
385.195 
385.26 
404.368 
413.564 
401.36 
413.392 
420.358 
404.771 
416.782 
398.721 
422.379 
396.033 
393.726 
394.791 
396.8 
399.033 
441.937 
429.638 
418.54 
412.841 
391.243 
380.28 
430.66 
424.001 
438.585 
443.993 
403.569 
406.004 
407.006 
401.399 
406.579 
395.079 
399.258 
402.341 
415.571 
388.277 
412.77 
401.421 
390.927 
373.981 
388.47 
399.574 
406.183 
414.661 
416.178 
394.146 
398.361 
417.609 
401.962 
401.685 
430.402 
423.197 
420.307 
420.365 
425.661 
412.331 
416.992 
395.532 
397.408 
403.654 
373.363 
382.325 
385.707 
453.005 
417.014 
417.74 
396.68 
418.596 
408.175 
419.288 
401.367 
433.017 
424.32 
424.684 
434.917 
419.495 
430.833 
416.902 
439.711 
460.032 
436.446 
437.329 
446.564 
458.071 
416.524 
474.188 
422.731 
446.205 
453.482 
444.284 
436.01 
438.392 
447.087 
465.952 
464.977 
469.693 
457.1 
447.978 
485.711 
453.666 
435.233 
492.843 
445.498 
450.365 
467.069 
449.226 
436.644 
404.203 
444.309 
433.154 
434.048 
451.957 
450.18 
437.778 
421.575 
425.483 
427.504 
411.136 
420.478 
424.57 
439.977 
421.401 
437.974 
441.024 
439.995 
430.767 
433.297 
409.884 
414.735 
424.513 
404.121 
423.274 
421.917 
423.97 
411.893 
405.98 
429.052 
404.979 
403.897 
428.452 
430.703 
425.131 
440.55 
455.378 
434.015 
422.877 
465.085 
467.157 
423.751 
421.849 
438.394 
411.373 
460.944 
476.26 
461.698 
437.716 
460.306 
465.235 
442.917 
459.629 
454.813 
414.89 
447.341 
432.616 
407.029 
412.586 
423.911 
430.335 
409.859 
411.639 
403.286 
414.655 
407.851 
416.312 
410.165 
435.917 
422.627 
432.933 
444.393 
423.871 
414.511 
419.378 
421.85 
431.018 
429.084 
419.347 
451.761 
429.954 
415.508 
414.91 
416.161 
423.563 
388.382 
417.89 
407.014 
409.904 
431.426 
454.931 
429.69 
431.441 
415.019 
421.961 
438.748 
448.39 
461.627 
450.618 
443.248 
439.097 
425.138 
427.138 
458.051 
432.509 
419.466 
432.243 
427.237 
420.682 
422.762 
410.227 
416.102 
406.647 
430.251 
438.322 
442.3 
416.647 
415.961 
451.937 
421.204 
420.035 
426.97 
437.073 
434.21 
436.102 
429.355 
438.059 
433.346 
459.097 
449.276 
451.232 
455.509 
442.32 
454.964 
433.187 
421.261 
442.815 
460.479 
461.683 
476.576 
463.368 
436.009 
439.666 
439.72 
445.855 
483.794 
469.7 
457.491 
447.767 
433.318 
458.801 
459.119 
426.237 
476.335 
484.539 
486.523 
499.237 
506.538 
483.616 
490.889 
514.428 
499.799 
475.971 
490.747 
485.002 
501.878 
512.603 
491.666 
506.475 
494.874 
508.707 
493.594 
484.909 
479.806 
456.89 
473.902 
472.755 
471.911 
472.258 
463.356 
448.108 
487.748 
484.852 
463.401 
479.094 
469.522 
461.31 
439.159 
466.55 
461.464 
492.727 
454.254 
456.499 
446.002 
444.581 
425.644 
421.849 
441.806 
425.341 
426.089 
421.836 
442.819 
476.983 
475.542 
488.564 
466.967 
462.875 
451.916 
469.646 
477.392 
482.149 
448.734 
473.783 
461.923 
449.183 
452.957 
440.352 
446.168 
451.504 
456.438 
448.56 
455.092 
456.314 
438.737 
458.47 
436.607 
456.494 
490.585 
441.689 
445.668 
435.663 
469.933 
484.404 
486.091 
472.187 
464.66 
449.866 
459.249 
498.949 
463.626 
497.657 
467.501 
489.439 
468.378 
451.425 
459.332 
451.822 
440.162 
443.564 
446.635 
448.288 
430.262 
420.497 
433.089 
452.564 
438.846 
485.411 
490.091 
459.23 
468.871 
493.227 
470.431 
468.468 
463.201 
454.31 
452.099 
476.095 
507.078 
490.012 
502.792 
503.811 
513.72 
531.235 
492.922 
489.279 
476.559 
465.241 
494.491 
486.923 
512.804 
494.936 
487.532 
495.799 
505.049 
521.672 
485.364 
488.089 
495.135 
483.453 
514.17 
522.841 
500.552 
479.621 
483.207 
504.629 
482.047 
507.723 
486.737 
495.18 
502.424 
501.218 
474.319 
486.912 
465.049 
509.967 
496.347 
489.286 
483.576 
503.08 
484.35 
482.174 
482.66 
479.044 
465.026 
463.341 
508.619 
428.492 
436.398 
483.29 
442.26 
448.398 
437.809 
435.817 
453.255 
451.707 
444.281 
453.575 
459.4 
474.668 
452.179 
452.765 
473.281 
468.246 
478.181 
460.661 
460.293 
458.144 
477.105 
465.276 
446.162 
445.389 
445.56 
446.882 
469.544 
466.256 
506.731 
455.34 
480.365 
487.376 
461.849 
504.259 
518.052 
503.657 
521.485 
530.523 
532.014 
527.278 
509.385 
509.235 
541.287 
475.636 
496.922 
502.006 
517.936 
519.426 
534.448 
555.123 
525.786 
516.08 
538.235 
566.69 
491.583 
507.402 
500.645 
503.352 
545.552 
522.857 
512.033 
514.776 
516.075 
507.631 
514.097 
511.127 
497.62 
536.593 
510.963 
574.471 
551.794 
534.079 
528.628 
544.313 
537.597 
527.413 
509.782 
498.483 
488.123 
491.264 
512.106 
483.612 
500.037 
511.605 
468.114 
500.51 
538.61 
542.132 
515.695 
505.508 
498.711 
513.215 
460.935 
524.308 
493.383 
490.789 
490.231 
490.492 
508.157 
523.092 
496.159 
492.874 
517.016 
502.556 
501.173 
487.681 
508.029 
508.23 
476.08 
487.894 
529.674 
459.587 
459.078 
481.386 
495.924 
514.429 
547.896 
557.979 
535.593 
558.35 
552.449 
539.253 
567.837 
531.337 
514.706 
516.394 
539.852 
509.817 
511.568 
543.438 
502.662 
526.924 
510.475 
495.262 
475.25 
484.2 
485.929 
464.485 
