ITEM: TIMESTEP
99000000
ITEM: NUMBER OF CELLS
1000
ITEM: BOX BOUNDS ss rr pp
0 0.004
0 0.01
-0.5 0.5
ITEM: CELLS f_temp1[*] 
303.556 
300.948 
302.623 
306.674 
315.055 
293.541 
306.822 
292.599 
288.633 
294.095 
301.531 
291.596 
297.532 
290.016 
292.301 
286.153 
292.401 
303.286 
308.698 
310.984 
321.335 
315.413 
321.398 
298.258 
314.056 
298.872 
311.527 
313.456 
294.937 
302.493 
320.432 
306.287 
294.378 
301.172 
301.228 
307.262 
297.726 
305.282 
320.244 
317.55 
319.042 
314.978 
315.341 
312.776 
300.07 
312.974 
317.96 
292.281 
311.625 
317.872 
316.241 
298.753 
305.056 
308.612 
312.198 
301.145 
312.963 
303.227 
301.975 
300.345 
280.481 
290.451 
292.693 
290.37 
284.472 
293.508 
284.867 
297.798 
293.634 
304.755 
307.365 
299.145 
292.381 
295.603 
289.733 
297.633 
296.05 
294.886 
298.992 
309.384 
304.671 
307.408 
293.019 
298.349 
306.406 
301.787 
299.579 
316.734 
318.731 
312.852 
298.172 
305.92 
298.133 
308.556 
301.176 
298.745 
294.66 
300.362 
320.904 
310.239 
316.856 
319.119 
316.242 
303.475 
288.616 
302.525 
317.019 
304.762 
315.016 
316.617 
315.09 
326.09 
347.638 
344.071 
350.968 
352.625 
353.961 
321.377 
339.154 
345.987 
345.52 
343.248 
337.445 
325.596 
330.199 
333.278 
320.893 
334.153 
316.974 
325.227 
335.941 
355.514 
359.748 
338.377 
340.516 
337.686 
319.906 
329.991 
323.911 
317.458 
329.461 
322.106 
345.088 
341.064 
340.656 
347.326 
340.913 
345.01 
363.523 
343.195 
343.698 
349.855 
346.066 
335.304 
335.603 
329.772 
320.402 
337.073 
344.742 
334.697 
355.141 
354.83 
350.639 
358.781 
346.811 
356.01 
375.46 
355.614 
353.158 
349.242 
356.534 
339.403 
355.58 
352.454 
347.638 
327.54 
331.252 
335.789 
336.205 
321.09 
343.532 
349.053 
357.47 
348.168 
355.044 
347.063 
321.21 
321.237 
316.692 
324.093 
327.883 
333.137 
349.16 
365.992 
328.364 
330.2 
316.828 
343.575 
334.314 
351.863 
352.522 
330.18 
345.043 
328.828 
374.184 
362.924 
374.152 
372.202 
378.494 
382.664 
369.913 
320.893 
342.168 
353.044 
339.166 
345.948 
330.907 
338.773 
352.14 
373.345 
355.636 
342.826 
357.8 
349.694 
327.967 
335.626 
354.829 
355.782 
363.319 
356.465 
359.065 
348.221 
346.687 
358.015 
351.998 
344.724 
357.848 
376.24 
349.372 
348.522 
362.719 
370.961 
351.633 
357.971 
364.084 
366.551 
364.087 
368.551 
354.955 
377.261 
370.59 
346.244 
351.294 
365.362 
347.968 
339.323 
357.945 
358.015 
383.325 
378.924 
385.621 
346.604 
378.104 
370.264 
357.927 
352.86 
348.722 
350.414 
365.828 
377.036 
373.366 
360.757 
396.07 
380.652 
375.309 
389.564 
388.847 
394.151 
416.832 
397.883 
391.979 
418.117 
412.54 
406.997 
409.009 
415.985 
392.914 
386.425 
382.786 
355.334 
388.299 
354.388 
372.228 
350.58 
380.33 
381.7 
391.523 
390.892 
371.218 
398.679 
374.782 
382.574 
394.894 
364.873 
377.521 
377.338 
375.39 
367.164 
376.204 
368.247 
401.609 
403.729 
389.787 
377.2 
382.622 
390.864 
385.928 
397.124 
388.894 
386.425 
398.763 
402.362 
390.39 
415.459 
412.994 
414.258 
407.275 
397.948 
390.751 
375.596 
381.674 
384.12 
388.708 
396.842 
385.821 
385.771 
400.541 
390.903 
379.887 
390.808 
393.344 
396.596 
401.424 
400.456 
409.91 
399.446 
402.844 
392.807 
388.84 
409.511 
378.695 
393.013 
397.446 
406.572 
406.298 
394.013 
387.801 
372.755 
393.091 
391.018 
392.835 
401.734 
394.759 
375.315 
396.225 
378.125 
382.035 
371.242 
377.845 
397.877 
373.803 
370.066 
367.663 
393.822 
386.383 
373.262 
402.771 
398.194 
387.638 
390.386 
384.747 
398.728 
389.141 
377.396 
383.776 
386.927 
393.95 
375.182 
385.413 
365.639 
378.524 
387.85 
391 
381.504 
381.465 
379.556 
365.428 
374.448 
393.437 
385.779 
384.661 
367.748 
376.582 
369.492 
358.426 
359.597 
388.239 
388.955 
404.291 
374.268 
400.826 
392.517 
377.604 
405.667 
396.968 
378.124 
394.752 
384.498 
382.918 
376.139 
392.213 
392.53 
372.552 
418.28 
423.844 
396.981 
418.5 
399.242 
389.247 
386.22 
393.412 
414.294 
416.51 
419.665 
433.729 
430.315 
432.228 
428.069 
429.818 
442.08 
455.661 
442.535 
440.331 
470.767 
440.197 
389.576 
387.744 
379.61 
397.165 
424.693 
391.72 
405.211 
408.257 
413.819 
410.82 
440.057 
415.3 
424.405 
439.024 
422.534 
430.507 
423.127 
422.772 
416.168 
399.03 
406.433 
389.129 
386.352 
405.049 
403.27 
396.706 
400.091 
415.811 
411.16 
415.488 
426.51 
412.785 
379.872 
396.492 
391.515 
408.67 
403.935 
402.364 
401.508 
411.96 
414.734 
408.512 
407.805 
410.848 
409.926 
390.964 
396.239 
416.994 
431.325 
412.482 
399.587 
408.898 
414.339 
400.463 
403.736 
436.058 
421.894 
390.655 
435.449 
420.907 
418.634 
422.646 
420.802 
433.219 
444.122 
425.299 
404.106 
419.991 
393.575 
429.673 
401.768 
403.609 
404.479 
414.272 
387.284 
399.16 
376.55 
397.023 
405.948 
399.157 
385.98 
379.075 
381.542 
374.719 
390.684 
392.254 
380.415 
395.648 
384.994 
396.052 
369.856 
384.264 
391.909 
397.505 
394.384 
368.915 
380.479 
380.942 
379.067 
397.467 
417.048 
397.576 
416.951 
422.819 
411.859 
406.316 
405.55 
398.785 
395.04 
404.468 
402.811 
407.131 
423.958 
435.928 
454.737 
442.72 
441.209 
431.522 
431.983 
411.651 
439.385 
460.662 
473.937 
433.499 
419.586 
432.412 
454.05 
470.077 
425.175 
429.046 
434.539 
447.96 
457.517 
434.968 
445.276 
438.128 
438.94 
452.157 
441.768 
452.964 
427.809 
447.042 
462.619 
450.088 
459.177 
407.22 
427.635 
456.186 
443.625 
446.18 
457.049 
442.248 
435.791 
418.01 
419.193 
434.575 
408.045 
412.939 
431.386 
434.228 
387.843 
400.71 
397.378 
418.049 
428.281 
413.429 
387.782 
391.027 
408.343 
429.108 
422.205 
443.525 
440.47 
443.265 
433.927 
414.353 
420.244 
386.013 
409.49 
418.642 
402.777 
426.099 
422.306 
431.846 
417.575 
422.04 
437.558 
440.229 
419.033 
430.564 
407.056 
443.659 
437.56 
424.327 
410.416 
452.419 
464.675 
474.729 
469.086 
466.339 
452.09 
469.105 
453.26 
430.092 
440.797 
421.412 
455.204 
438.857 
433.144 
441.31 
424.299 
422.36 
401.682 
426.524 
426.743 
411.316 
445.908 
444.269 
439.945 
447.247 
467.277 
492.274 
483.676 
479.477 
474.774 
503.992 
485.798 
492.705 
474.26 
426.906 
463.667 
427.696 
452.115 
430.786 
398.088 
426.139 
465.655 
458.333 
416.742 
403.546 
436.676 
425.356 
432.045 
458.641 
449.06 
491.627 
472.447 
470.956 
471.065 
470.917 
427.932 
455.504 
435.111 
440.559 
438.543 
431.945 
432.285 
437.77 
414.61 
435.329 
445.603 
450.179 
423.528 
422.636 
436.16 
437.717 
429.077 
449.017 
429.211 
460.913 
474.111 
446.405 
433.204 
454.837 
424.019 
425.787 
422.778 
435.715 
415.051 
424.792 
423.457 
423.106 
423.725 
422.339 
428.843 
422.134 
446.35 
421.925 
449.514 
469.098 
448.906 
463.756 
446.439 
429.624 
436.441 
432.283 
425.887 
435.197 
431.317 
437.881 
444.453 
426.152 
445.66 
435.993 
436.647 
442.488 
447.631 
438.943 
446.023 
409.091 
400.246 
397.903 
413.759 
399.015 
437.973 
424.729 
415.07 
431.4 
402.447 
435.378 
431.674 
416.121 
430.134 
425.324 
441.061 
442.969 
445.263 
428.896 
462.45 
468.072 
440.671 
429.264 
436.843 
434.63 
470.682 
442.412 
452.186 
429.008 
456.298 
462.442 
446.515 
428.951 
443.157 
454.607 
470.116 
444.064 
443.225 
461.51 
436.849 
443.9 
455.361 
408.839 
425.782 
411.893 
424.195 
420.81 
403.467 
414.739 
439.479 
399.046 
421.883 
444.194 
445.02 
454.858 
455.164 
457.487 
444.014 
465.644 
442.383 
459.92 
440.318 
441.081 
418.505 
475.709 
495.787 
522.989 
471.122 
468.235 
442.573 
455.51 
458.026 
435.27 
441.125 
447.535 
458.013 
456.676 
464.353 
462.279 
477.699 
474.448 
461.629 
467.481 
452.964 
499.678 
491.039 
489.127 
477.955 
439.228 
449.922 
479.703 
496.099 
487.482 
495.71 
491.199 
480.609 
502.106 
457.779 
464.893 
464.956 
469.417 
474.563 
467.819 
468.957 
480.15 
479.01 
485.952 
456.065 
484.638 
463.475 
439.044 
473.052 
437.127 
449.77 
457.704 
429.632 
491.95 
497.236 
454.474 
450.279 
447.367 
434.829 
431.295 
447.885 
438.376 
481.862 
444.1 
454.104 
441.007 
422.309 
435.028 
464.941 
457.013 
468.188 
473.031 
446.475 
450.434 
453.894 
425.535 
436.901 
424.884 
438.238 
444.244 
446.347 
453.513 
479.162 
487.347 
481.982 
475.23 
451.842 
465.868 
466.091 
467.259 
497.25 
482.614 
455.673 
487.415 
496.924 
500.181 
505.533 
475.015 
458.98 
480.896 
482.563 
471.372 
483.763 
466.009 
484.399 
481.051 
451.003 
452.337 
483.699 
508.313 
478.081 
485.722 
494.664 
508.977 
466.838 
478.229 
473.86 
449.101 
474.324 
465.851 
483.981 
490.855 
451.61 
470.036 
498.349 
464.041 
484.516 
489.345 
509.84 
491.152 
476.164 
506.625 
524.599 
542.607 
527.044 
549.501 
522.331 
485.123 
506.351 
469.5 
488.822 
507.144 
487.368 
506.331 
491.234 
504.087 
517.471 
533.499 
578.351 
495.851 
513.26 
500.981 
497.962 
489.695 
479.82 
508.085 
478.93 
490.009 
466.73 
454.877 
534.609 
518.328 
537.576 
543.028 
548.35 
535.038 
491.571 
481.404 
492.809 
500.136 
514.107 
525.834 
579.018 
596.651 
561.545 
520.272 
525.424 
530.63 
512.136 
558.231 
555.415 
530.607 
542.341 
