ITEM: TIMESTEP
83000000
ITEM: NUMBER OF CELLS
1000
ITEM: BOX BOUNDS ss rr pp
0 0.004
0 0.01
-0.5 0.5
ITEM: CELLS f_temp1[*] 
309.066 
313.88 
310.618 
312.817 
315.689 
306.099 
293.683 
284.36 
306.416 
309.916 
307.969 
301.589 
318.023 
313.209 
313.463 
290.727 
304.804 
307.934 
313.202 
321.21 
328.169 
314.708 
298.275 
314.399 
328.866 
298.698 
300.822 
303.318 
307.909 
297.067 
295.269 
289.287 
316.671 
301.816 
292.742 
307.177 
309.105 
318.324 
325.659 
306.143 
291.882 
304.307 
301.643 
294.347 
306.124 
301.524 
300.365 
310.675 
321.631 
292.695 
314.289 
307.441 
295.667 
306.243 
314.198 
319.72 
345.071 
341.378 
349.781 
350.266 
349.291 
347.602 
348.626 
356.843 
361.607 
340.222 
340.265 
333.617 
324.612 
323.18 
346.074 
361.691 
342.012 
340.135 
352.676 
352.458 
361.385 
354.171 
331.786 
332.127 
343.889 
328.958 
338.688 
346.922 
322.777 
315.497 
324.895 
322.231 
323.453 
325.452 
316.106 
317.372 
314.811 
306.841 
306.1 
327.219 
319.002 
335.965 
342.722 
353.262 
360.494 
341.972 
361.187 
354.552 
352.15 
347.304 
345.158 
329.701 
330.168 
318.646 
312.947 
310.375 
321.474 
348.103 
342.096 
354.656 
343.012 
320.748 
308.463 
324.024 
322.418 
333.093 
327.814 
334.893 
328.75 
333.908 
343.046 
350.969 
348.389 
350.229 
361.712 
349.512 
355.068 
355.846 
331.102 
337.909 
346.316 
346.946 
350.492 
333.478 
340.865 
331.914 
330.731 
315.411 
325.879 
313.023 
313.353 
316.122 
312.839 
300.832 
326.022 
318.641 
332.105 
312.648 
344.53 
348.689 
360.16 
348.881 
351.049 
331.269 
344.147 
349.118 
330.021 
334.774 
328.025 
335.724 
334.491 
333.661 
354.694 
330.916 
372.515 
363.706 
382.997 
368.738 
327.11 
345.379 
327.842 
340.753 
351.993 
354.305 
342.575 
352.292 
344.041 
332.578 
329.658 
336.161 
335.093 
335.787 
335.627 
337.844 
337.82 
351.039 
359.791 
346.908 
361.741 
351.221 
365.747 
349.101 
357.899 
353.382 
350.254 
364.268 
356.161 
364.715 
368.711 
379.809 
359.951 
379.915 
368.263 
385.852 
354.349 
358.355 
359.223 
358.171 
370.435 
379.42 
386.891 
360.669 
364.738 
341.024 
350.897 
386.439 
377.045 
372.639 
389.65 
373.601 
360.261 
372.373 
401.16 
376.103 
380.031 
365.446 
381.318 
378.531 
397.615 
399.993 
387.489 
379.942 
377.909 
377.19 
348.42 
356.466 
381.119 
364.304 
365.647 
372.498 
341.011 
351.402 
347.478 
354.672 
376.162 
368.935 
369.331 
382.772 
376.932 
368.209 
352.979 
365.203 
355.707 
374.065 
368.079 
375.902 
376.527 
366.124 
375.775 
373.121 
367.193 
356.905 
372.128 
386.947 
393.956 
415.032 
358.629 
365.951 
363.303 
380.87 
357.322 
356.518 
360.12 
365.185 
354.305 
341.416 
334.118 
339.635 
326.254 
316.572 
327.387 
342.437 
344.726 
351.268 
352.027 
362.82 
363.334 
350.631 
357.686 
387.315 
408.793 
400.519 
373.639 
385.151 
389.139 
370.718 
379.113 
381.203 
388.137 
360.266 
375.905 
379.409 
377.536 
380.562 
415.184 
414.787 
425.997 
394.36 
419.867 
391.607 
404.57 
399.869 
405.637 
398.417 
385.702 
415.383 
407.379 
409.586 
410.108 
420.632 
394.441 
398.552 
407.53 
399.234 
405.759 
427.309 
447.356 
426.089 
431.976 
426.392 
426.016 
417.098 
415.397 
432.527 
376.737 
369.481 
368.612 
372.962 
371.034 
376.754 
391.918 
364.73 
351.316 
361.467 
355.471 
428.312 
407.994 
407.511 
407.228 
389.389 
389.127 
384.722 
393.187 
397.963 
384.586 
382.901 
395.371 
374.514 
342.51 
358.33 
361.377 
366.769 
365.008 
383.549 
392.27 
382.581 
392.332 
405.425 
416.353 
406.39 
407.514 
369.655 
377.121 
382.11 
379.931 
375.367 
385.574 
412.42 
374.393 
370.152 
399.05 
411.075 
413.841 
406.093 
403.238 
384.606 
399.333 
407.498 
410.175 
393.273 
412.204 
387.215 
376.196 
369.428 
383.431 
412.777 
390.301 
393.724 
398.727 
428.71 
408.485 
405.561 
396.046 
393.639 
404.677 
371.357 
391.613 
384.559 
373.393 
399.568 
381.447 
387.572 
408.959 
400.921 
420.546 
412.31 
398.987 
394.676 
400.569 
387.118 
399.873 
418.734 
409.769 
399.057 
399.11 
405.004 
381.161 
401.214 
385.099 
367.78 
360.254 
416.506 
385.472 
405.392 
368.293 
373.99 
406.037 
387.666 
393.099 
399.989 
410.35 
402.066 
400.814 
428.819 
416.359 
416.258 
391.914 
393.663 
394.184 
391.454 
384.393 
392.441 
362.622 
378.971 
375.485 
383.521 
376.991 
383.614 
407.32 
415.3 
391.881 
381.732 
389.359 
400.564 
402.912 
406.873 
418.731 
410.799 
425.081 
407.701 
394.683 
393.578 
375.033 
373.229 
384.403 
381.107 
395.516 
395.849 
401.07 
370.644 
393.755 
401.857 
406.349 
402.656 
368.558 
382.665 
400.606 
392.288 
390.444 
386.665 
382.557 
387.047 
382.678 
395.294 
378.871 
394.527 
382.571 
377.99 
404.074 
394.634 
406.991 
393.702 
392.847 
391.42 
393.363 
403.861 
386.226 
393.361 
376.611 
392.719 
408.598 
370.975 
415.046 
388.104 
378.617 
390.907 
411.511 
402.96 
411.423 
415.428 
386.579 
395.888 
399.029 
403.01 
402.256 
410.873 
412.121 
405.22 
392.794 
399.948 
398.186 
379.265 
388.618 
386.128 
371.243 
406.953 
401.542 
408.921 
392.884 
376.458 
410.513 
397.269 
395.814 
394.789 
390.497 
374.409 
380.583 
375.82 
381.453 
382.725 
364.823 
385.781 
377.01 
394.753 
375.245 
399.487 
386.624 
393.14 
387.404 
388.812 
413.473 
395.381 
398.928 
427.862 
436.118 
396.481 
393.115 
386.813 
410.784 
400.653 
399.423 
413.779 
440.679 
422.979 
423.383 
448.743 
434.981 
450.752 
443.24 
399.763 
390.363 
399.249 
393.27 
415.196 
425.572 
426.395 
419.587 
414.792 
411.952 
425.09 
437.578 
421.796 
421.153 
408.26 
379.739 
414.194 
400.771 
406.623 
417.884 
412.594 
416.738 
415.351 
408.322 
420.474 
428.832 
410.358 
425.736 
391.97 
354.554 
367.368 
369.634 
363.488 
358.14 
379.021 
374.91 
388.746 
392.5 
425.05 
410.441 
440.952 
439.649 
435.143 
440.596 
446.461 
437.712 
436.551 
416.211 
408.556 
394.492 
402.355 
464.193 
424.842 
405.522 
418.843 
422.917 
456.354 
423.38 
419.16 
464.499 
456.959 
454.998 
474.11 
462.752 
449.68 
447.238 
457.392 
466.648 
425.381 
441.016 
447.874 
448.414 
450.677 
458.009 
482.917 
439.616 
460.188 
454.85 
454.565 
456.113 
460.107 
481.288 
465.498 
473.924 
428.34 
445.278 
447.881 
443.603 
449.18 
452.292 
439.026 
413.145 
419.447 
431.839 
452.217 
505.283 
459.715 
470.449 
451.423 
452.526 
458.695 
421.867 
425.677 
441.323 
453.879 
436.861 
444.937 
451.994 
448.549 
487.397 
448.234 
465.979 
471.003 
442.82 
438.351 
469.95 
458.188 
459.534 
472.881 
470.353 
449.27 
448.496 
439.486 
435.05 
441.057 
434.515 
422.015 
412.648 
456.077 
435.737 
439.396 
419.288 
421.462 
406.76 
425.979 
410.692 
426.278 
456.69 
438.418 
452.227 
439.721 
478.432 
463.46 
498.506 
476.787 
468.824 
482.302 
473.644 
472.029 
453.162 
468.633 
467.737 
456.486 
497.275 
467.014 
454.632 
458.204 
443.156 
449.471 
464.271 
445.915 
456.349 
473.491 
480.758 
466.299 
487.833 
496.571 
476.639 
494.548 
462.078 
480.67 
437.638 
453.894 
444.072 
489.376 
465.189 
449.806 
457.071 
464.18 
462.343 
466.797 
481.971 
458.778 
453.626 
458.254 
482.005 
451.375 
487.755 
458.116 
459.644 
465.903 
463.775 
475.085 
497.81 
486.022 
500.067 
501.811 
499.614 
463.418 
464.198 
479.243 
470.231 
453.209 
453.238 
475.796 
455.713 
462.677 
501.196 
495.251 
483.001 
455.342 
472.012 
483.439 
495.395 
450.412 
478.969 
434.33 
452.032 
463.317 
474.161 
462.986 
493.149 
475.994 
470.531 
478.875 
453.918 
448.176 
465.13 
444.662 
471.361 
481.228 
454.948 
494.78 
488.515 
469.275 
430.266 
461.811 
471.838 
477.901 
487.985 
505.467 
522.343 
479.096 
502.588 
497.754 
527.344 
501.461 
500.012 
469.982 
518.644 
474.084 
486.508 
486.652 
472.838 
462.345 
474.008 
447.62 
464.176 
498.801 
483.697 
465.41 
479.889 
488.877 
514.201 
519.822 
544.642 
541.018 
503.846 
494.907 
539.418 
537.661 
536.724 
555.302 
515.909 
518.901 
517.735 
489.715 
511.531 
497.538 
477.179 
455.964 
487.927 
480.436 
485.685 
498.247 
502.526 
524.279 
493.85 
508.864 
482.555 
488.332 
478.475 
525.979 
496.439 
502.032 
496.447 
504.772 
500.275 
489.091 
471.227 
461.554 
501.215 
513.464 
524.643 
523.624 
516.851 
517.513 
539.683 
495.557 
449.449 
517.56 
498.65 
495.016 
489.024 
495.53 
509.878 
479.462 
488.966 
493.585 
469.672 
461.852 
475.147 
477.516 
481.425 
534.349 
478.462 
477.865 
470.745 
477.83 
453.88 
460.271 
490.035 
464.126 
481.999 
467.556 
455.573 
471.472 
443.964 
495.387 
484.767 
480.186 
498.888 
494.699 
515.312 
496.419 
490.977 
472.649 
466.538 
489.825 
485.397 
507.302 
532.144 
485.017 
478.287 
520.704 
481.43 
508.173 
490.513 
484.533 
494.577 
499.76 
475.105 
498.144 
519.933 
523.299 
514.471 
540.98 
510.435 
489.694 
546.99 
527.871 
508.615 
536.366 
539.221 
518.47 
513.941 
535.235 
541.978 
517.167 
492.579 
518.639 
524.297 
506.396 
511.036 
503.18 
523.859 
528.295 
513.892 
502.564 
532.07 
487.991 
508.5 
528.051 
548.874 
507.648 
551.565 
505.252 
533.182 
470.983 
456.499 
481.315 
500.116 
503.639 
497.543 
493.351 
531.233 
533.4 
533.501 
530.636 
546.528 
501.006 
530.219 
512.337 
528.606 
534.379 
