ITEM: TIMESTEP
390000
ITEM: NUMBER OF CELLS
100
ITEM: BOX BOUNDS ss pp pp
0 0.001
0 1e-05
-0.5 0.5
ITEM: CELLS c_particles[1] 
137 
141 
145 
129 
146 
135 
136 
138 
129 
134 
126 
138 
132 
127 
118 
131 
107 
128 
105 
104 
119 
117 
102 
103 
115 
112 
127 
98 
117 
113 
100 
105 
101 
101 
88 
116 
111 
113 
113 
104 
104 
109 
111 
92 
113 
80 
98 
99 
95 
93 
85 
97 
106 
101 
101 
85 
98 
99 
92 
93 
86 
103 
94 
87 
78 
88 
70 
85 
93 
91 
103 
81 
94 
83 
103 
89 
97 
61 
82 
76 
81 
75 
88 
78 
70 
69 
99 
72 
65 
61 
83 
99 
79 
74 
88 
67 
67 
77 
77 
75 
