ITEM: TIMESTEP
2760000
ITEM: NUMBER OF CELLS
100
ITEM: BOX BOUNDS ss pp pp
0 0.001
0 1e-05
-0.5 0.5
ITEM: CELLS c_particles[1] 
161 
153 
147 
152 
152 
142 
135 
111 
133 
108 
129 
131 
137 
127 
134 
126 
125 
117 
133 
105 
124 
123 
117 
103 
139 
110 
132 
126 
116 
108 
119 
114 
97 
95 
109 
104 
85 
111 
99 
98 
101 
92 
89 
90 
96 
105 
103 
84 
79 
92 
94 
101 
85 
92 
82 
87 
85 
97 
84 
77 
82 
86 
73 
85 
79 
88 
83 
70 
80 
94 
82 
99 
87 
68 
87 
98 
83 
87 
80 
82 
83 
80 
90 
96 
79 
84 
84 
87 
83 
73 
83 
79 
70 
88 
80 
76 
60 
104 
83 
63 
