ITEM: TIMESTEP
3790000
ITEM: NUMBER OF CELLS
100
ITEM: BOX BOUNDS ss pp pp
0 0.001
0 1e-05
-0.5 0.5
ITEM: CELLS c_particles[1] 
165 
151 
134 
142 
140 
134 
138 
150 
134 
153 
120 
141 
122 
122 
134 
98 
126 
122 
130 
125 
138 
120 
124 
102 
104 
98 
104 
123 
97 
128 
115 
117 
135 
90 
105 
103 
108 
111 
113 
106 
104 
99 
103 
97 
100 
94 
108 
103 
114 
89 
100 
69 
108 
115 
85 
91 
113 
78 
71 
80 
90 
86 
88 
75 
99 
81 
95 
61 
71 
90 
78 
82 
83 
82 
80 
81 
80 
82 
80 
67 
97 
83 
72 
75 
81 
78 
72 
85 
74 
73 
88 
69 
67 
74 
80 
76 
73 
68 
82 
59 
