ITEM: TIMESTEP
610000
ITEM: NUMBER OF CELLS
100
ITEM: BOX BOUNDS ss pp pp
0 0.001
0 1e-05
-0.5 0.5
ITEM: CELLS c_particles[1] 
148 
136 
146 
139 
134 
136 
128 
134 
141 
122 
123 
143 
103 
105 
137 
128 
129 
109 
126 
134 
126 
121 
115 
112 
120 
108 
123 
105 
113 
123 
92 
99 
108 
108 
121 
96 
119 
104 
103 
114 
83 
86 
133 
99 
111 
111 
75 
104 
94 
100 
91 
108 
101 
90 
85 
97 
90 
89 
76 
84 
84 
88 
84 
89 
81 
92 
100 
80 
91 
73 
93 
75 
78 
80 
82 
89 
96 
91 
88 
90 
81 
68 
94 
76 
78 
92 
73 
69 
89 
71 
85 
68 
76 
64 
72 
87 
70 
88 
70 
67 
