ITEM: TIMESTEP
1055000
ITEM: NUMBER OF CELLS
100
ITEM: BOX BOUNDS ss pp pp
0 0.001
0 1e-05
-0.5 0.5
ITEM: CELLS c_particles[1] 
141 
149 
142 
139 
150 
134 
140 
143 
147 
139 
140 
135 
135 
143 
94 
110 
107 
94 
131 
116 
118 
109 
109 
132 
127 
126 
93 
116 
100 
119 
104 
101 
105 
91 
101 
104 
110 
98 
111 
107 
107 
94 
101 
91 
87 
99 
92 
105 
86 
110 
113 
87 
78 
95 
88 
87 
70 
105 
97 
93 
78 
89 
96 
104 
77 
84 
98 
90 
88 
86 
86 
76 
87 
85 
76 
93 
78 
81 
95 
86 
87 
84 
73 
74 
89 
71 
79 
85 
87 
94 
91 
77 
72 
63 
64 
69 
81 
96 
74 
62 
