ITEM: TIMESTEP
2090000
ITEM: NUMBER OF CELLS
100
ITEM: BOX BOUNDS ss pp pp
0 0.001
0 1e-05
-0.5 0.5
ITEM: CELLS c_particles[1] 
134 
141 
143 
144 
129 
131 
126 
151 
147 
137 
141 
141 
128 
110 
120 
126 
125 
114 
142 
96 
105 
114 
113 
95 
105 
113 
120 
131 
115 
88 
111 
100 
113 
96 
108 
102 
109 
108 
90 
93 
118 
100 
104 
95 
99 
108 
119 
108 
106 
99 
84 
108 
98 
97 
85 
97 
89 
72 
108 
82 
89 
94 
92 
91 
95 
102 
93 
86 
80 
90 
86 
90 
89 
90 
74 
91 
96 
93 
80 
74 
76 
64 
77 
83 
84 
77 
79 
68 
98 
69 
84 
82 
70 
66 
69 
81 
73 
62 
71 
61 
