ITEM: TIMESTEP
745000
ITEM: NUMBER OF CELLS
100
ITEM: BOX BOUNDS ss pp pp
0 0.001
0 1e-05
-0.5 0.5
ITEM: CELLS c_particles[1] 
143 
131 
147 
156 
136 
150 
148 
135 
123 
114 
118 
125 
124 
118 
135 
137 
107 
113 
126 
106 
126 
123 
110 
122 
129 
99 
93 
116 
85 
131 
111 
102 
116 
120 
110 
98 
112 
108 
81 
99 
101 
93 
105 
115 
103 
111 
101 
91 
87 
89 
93 
87 
104 
98 
102 
92 
85 
88 
81 
72 
93 
107 
99 
85 
88 
105 
81 
87 
102 
79 
77 
97 
83 
82 
88 
67 
81 
86 
91 
84 
81 
77 
93 
78 
87 
78 
91 
61 
92 
71 
55 
76 
67 
71 
90 
69 
89 
73 
72 
86 
