ITEM: TIMESTEP
615000
ITEM: NUMBER OF CELLS
100
ITEM: BOX BOUNDS ss pp pp
0 0.001
0 1e-05
-0.5 0.5
ITEM: CELLS c_particles[1] 
148 
155 
141 
132 
136 
120 
115 
122 
122 
145 
109 
118 
137 
118 
134 
116 
129 
136 
109 
120 
124 
113 
148 
111 
132 
96 
105 
108 
87 
98 
100 
106 
102 
98 
114 
121 
110 
88 
116 
100 
116 
88 
99 
108 
101 
90 
113 
94 
90 
97 
94 
100 
95 
85 
116 
74 
89 
88 
108 
90 
81 
82 
104 
100 
97 
94 
93 
87 
78 
88 
88 
83 
95 
88 
94 
79 
85 
84 
83 
81 
75 
76 
71 
77 
89 
71 
93 
90 
79 
67 
73 
100 
77 
88 
66 
64 
81 
76 
71 
78 
