ITEM: TIMESTEP
1105000
ITEM: NUMBER OF CELLS
100
ITEM: BOX BOUNDS ss pp pp
0 0.001
0 1e-05
-0.5 0.5
ITEM: CELLS c_particles[1] 
139 
128 
138 
128 
147 
145 
139 
131 
147 
145 
131 
138 
129 
135 
136 
124 
118 
115 
100 
111 
119 
124 
121 
115 
127 
98 
114 
108 
109 
99 
107 
112 
99 
101 
117 
117 
116 
102 
87 
104 
89 
112 
92 
116 
95 
93 
87 
85 
88 
107 
84 
83 
86 
90 
97 
103 
99 
85 
83 
92 
97 
92 
96 
72 
82 
94 
84 
81 
102 
85 
92 
111 
77 
93 
90 
79 
76 
72 
87 
90 
88 
80 
95 
72 
85 
73 
87 
84 
74 
89 
70 
75 
70 
75 
83 
69 
75 
76 
65 
77 
