ITEM: TIMESTEP
3380000
ITEM: NUMBER OF CELLS
100
ITEM: BOX BOUNDS ss pp pp
0 0.001
0 1e-05
-0.5 0.5
ITEM: CELLS c_particles[1] 
151 
151 
152 
128 
160 
153 
124 
121 
146 
110 
121 
119 
102 
118 
161 
108 
121 
116 
105 
135 
116 
107 
139 
123 
119 
96 
110 
114 
115 
101 
95 
103 
110 
108 
103 
90 
108 
117 
95 
114 
102 
99 
102 
120 
106 
101 
112 
87 
91 
91 
116 
104 
82 
94 
90 
63 
86 
109 
118 
93 
71 
87 
89 
93 
96 
93 
107 
88 
76 
91 
86 
74 
93 
77 
85 
85 
79 
88 
68 
60 
82 
88 
80 
70 
75 
90 
75 
83 
89 
91 
88 
74 
68 
66 
73 
65 
78 
92 
68 
68 
