ITEM: TIMESTEP
1410000
ITEM: NUMBER OF CELLS
100
ITEM: BOX BOUNDS ss pp pp
0 0.001
0 1e-05
-0.5 0.5
ITEM: CELLS c_particles[1] 
158 
128 
141 
128 
114 
133 
137 
124 
134 
130 
123 
137 
130 
128 
123 
140 
134 
129 
128 
115 
117 
125 
123 
106 
108 
118 
110 
120 
91 
104 
98 
110 
107 
124 
109 
99 
121 
94 
117 
115 
112 
117 
87 
72 
84 
98 
99 
74 
93 
119 
90 
94 
89 
90 
110 
106 
100 
88 
82 
91 
90 
97 
108 
96 
91 
83 
89 
91 
70 
85 
93 
90 
81 
78 
71 
85 
87 
76 
78 
71 
81 
78 
92 
69 
106 
77 
69 
78 
76 
86 
89 
78 
80 
80 
61 
75 
76 
83 
69 
62 
