ITEM: TIMESTEP
1985000
ITEM: NUMBER OF CELLS
100
ITEM: BOX BOUNDS ss pp pp
0 0.001
0 1e-05
-0.5 0.5
ITEM: CELLS c_particles[1] 
141 
159 
134 
154 
122 
155 
148 
150 
128 
126 
145 
116 
119 
134 
130 
112 
119 
118 
108 
111 
120 
111 
111 
105 
111 
120 
104 
107 
122 
119 
99 
138 
107 
112 
105 
111 
107 
115 
102 
94 
93 
107 
93 
110 
123 
111 
100 
83 
89 
81 
107 
102 
77 
83 
85 
88 
87 
78 
107 
105 
82 
95 
77 
101 
85 
82 
95 
69 
84 
60 
86 
75 
89 
64 
72 
95 
70 
74 
87 
72 
88 
80 
84 
89 
88 
88 
77 
89 
95 
68 
91 
87 
84 
73 
90 
62 
70 
90 
68 
67 
