ITEM: TIMESTEP
1615000
ITEM: NUMBER OF CELLS
100
ITEM: BOX BOUNDS ss pp pp
0 0.001
0 1e-05
-0.5 0.5
ITEM: CELLS c_particles[1] 
160 
151 
158 
125 
146 
110 
112 
138 
114 
123 
125 
126 
134 
121 
124 
132 
124 
132 
101 
112 
114 
107 
105 
105 
97 
118 
118 
110 
127 
93 
106 
120 
128 
113 
88 
116 
94 
98 
107 
99 
99 
104 
126 
104 
98 
101 
86 
114 
104 
96 
97 
98 
110 
101 
90 
89 
102 
108 
79 
85 
82 
89 
92 
84 
95 
75 
92 
86 
86 
74 
85 
86 
100 
85 
88 
100 
97 
86 
98 
63 
73 
75 
98 
86 
80 
77 
75 
79 
78 
69 
67 
85 
66 
78 
85 
76 
60 
84 
80 
64 
