ITEM: TIMESTEP
3800000
ITEM: NUMBER OF CELLS
100
ITEM: BOX BOUNDS ss pp pp
0 0.001
0 1e-05
-0.5 0.5
ITEM: CELLS c_particles[1] 
136 
117 
143 
125 
142 
143 
137 
146 
155 
148 
121 
120 
129 
135 
121 
115 
119 
119 
127 
132 
128 
121 
108 
108 
133 
119 
117 
88 
111 
109 
109 
104 
95 
107 
96 
114 
111 
118 
110 
105 
93 
81 
105 
98 
103 
93 
84 
99 
87 
100 
85 
86 
98 
95 
90 
93 
84 
96 
82 
91 
91 
89 
84 
100 
103 
72 
97 
84 
83 
90 
102 
87 
90 
93 
90 
88 
80 
87 
72 
74 
86 
75 
87 
80 
75 
75 
81 
79 
78 
81 
73 
81 
77 
68 
79 
84 
69 
85 
78 
69 
