ITEM: TIMESTEP
4840000
ITEM: NUMBER OF CELLS
100
ITEM: BOX BOUNDS ss pp pp
0 0.001
0 1e-05
-0.5 0.5
ITEM: CELLS c_particles[1] 
136 
143 
145 
132 
132 
123 
130 
131 
142 
136 
142 
141 
147 
146 
115 
108 
144 
120 
131 
109 
133 
104 
133 
121 
110 
110 
116 
115 
114 
120 
116 
123 
125 
93 
91 
92 
98 
98 
111 
103 
103 
90 
114 
114 
94 
94 
90 
81 
98 
83 
104 
78 
99 
101 
83 
90 
100 
95 
92 
77 
94 
83 
94 
88 
82 
80 
86 
88 
81 
84 
110 
92 
61 
78 
93 
71 
85 
82 
80 
99 
63 
92 
72 
92 
78 
71 
92 
72 
82 
70 
64 
80 
55 
62 
82 
84 
78 
87 
76 
78 
