ITEM: TIMESTEP
2550000
ITEM: NUMBER OF CELLS
100
ITEM: BOX BOUNDS ss pp pp
0 0.001
0 1e-05
-0.5 0.5
ITEM: CELLS c_particles[1] 
146 
164 
141 
146 
150 
122 
130 
118 
134 
137 
125 
129 
124 
130 
138 
105 
109 
126 
108 
119 
126 
129 
118 
110 
99 
132 
113 
103 
121 
110 
110 
98 
98 
112 
91 
105 
89 
99 
96 
100 
90 
95 
90 
111 
103 
91 
103 
100 
102 
96 
105 
89 
81 
96 
114 
92 
95 
104 
81 
94 
103 
102 
96 
87 
90 
79 
89 
87 
102 
84 
74 
97 
77 
62 
90 
92 
86 
77 
84 
96 
74 
71 
72 
90 
73 
69 
87 
83 
80 
89 
92 
78 
92 
64 
84 
65 
63 
82 
73 
73 
