ITEM: TIMESTEP
4850000
ITEM: NUMBER OF CELLS
100
ITEM: BOX BOUNDS ss pp pp
0 0.001
0 1e-05
-0.5 0.5
ITEM: CELLS c_particles[1] 
147 
143 
134 
147 
131 
140 
137 
134 
125 
124 
126 
146 
97 
112 
126 
120 
129 
116 
84 
127 
104 
127 
111 
117 
122 
100 
99 
112 
112 
87 
103 
107 
101 
104 
103 
117 
102 
117 
108 
92 
98 
99 
97 
91 
98 
108 
108 
93 
95 
94 
99 
103 
93 
109 
87 
88 
99 
110 
93 
94 
98 
99 
89 
85 
97 
106 
105 
85 
85 
83 
94 
85 
88 
80 
82 
92 
77 
86 
81 
74 
81 
92 
86 
71 
88 
81 
68 
94 
70 
75 
81 
85 
74 
83 
81 
73 
81 
87 
64 
68 
