ITEM: TIMESTEP
250000
ITEM: NUMBER OF CELLS
100
ITEM: BOX BOUNDS ss pp pp
0 0.001
0 1e-05
-0.5 0.5
ITEM: CELLS c_particles[1] 
181 
152 
140 
168 
150 
150 
135 
132 
129 
135 
127 
131 
117 
124 
123 
120 
123 
120 
102 
135 
113 
125 
121 
112 
101 
100 
118 
124 
89 
105 
97 
120 
93 
106 
125 
92 
100 
111 
99 
108 
101 
82 
99 
91 
106 
86 
117 
90 
77 
97 
97 
91 
99 
95 
91 
100 
93 
99 
91 
86 
94 
92 
104 
76 
66 
75 
88 
95 
71 
87 
75 
99 
99 
87 
90 
97 
88 
80 
84 
74 
74 
73 
90 
88 
89 
83 
82 
72 
61 
76 
96 
78 
64 
74 
74 
73 
84 
62 
72 
73 
