ITEM: TIMESTEP
1400000
ITEM: NUMBER OF CELLS
100
ITEM: BOX BOUNDS ss pp pp
0 0.001
0 1e-05
-0.5 0.5
ITEM: CELLS c_particles[1] 
149 
146 
153 
135 
154 
132 
131 
145 
124 
139 
150 
139 
102 
119 
117 
102 
145 
124 
109 
102 
109 
114 
103 
118 
126 
138 
97 
115 
105 
123 
100 
115 
103 
102 
86 
113 
86 
94 
95 
112 
117 
105 
96 
108 
101 
74 
89 
97 
108 
91 
101 
86 
81 
86 
102 
113 
96 
84 
101 
91 
87 
92 
84 
104 
88 
94 
73 
93 
103 
78 
96 
79 
96 
79 
74 
84 
92 
92 
87 
79 
61 
91 
68 
85 
74 
78 
80 
88 
87 
79 
79 
85 
83 
57 
72 
80 
78 
90 
65 
68 
