ITEM: TIMESTEP
4280000
ITEM: NUMBER OF CELLS
100
ITEM: BOX BOUNDS ss pp pp
0 0.001
0 1e-05
-0.5 0.5
ITEM: CELLS c_particles[1] 
163 
141 
147 
133 
143 
153 
141 
137 
131 
126 
134 
135 
136 
122 
139 
118 
135 
121 
125 
124 
95 
109 
128 
107 
130 
110 
120 
113 
101 
102 
118 
104 
124 
109 
99 
86 
95 
118 
105 
97 
104 
103 
81 
111 
95 
97 
91 
126 
97 
89 
92 
97 
93 
87 
102 
80 
112 
100 
80 
86 
87 
94 
82 
74 
70 
91 
77 
78 
91 
102 
82 
94 
83 
74 
78 
67 
99 
82 
79 
107 
80 
76 
73 
75 
72 
77 
68 
79 
87 
70 
86 
80 
68 
64 
69 
89 
71 
77 
74 
77 
