ITEM: TIMESTEP
1970000
ITEM: NUMBER OF CELLS
100
ITEM: BOX BOUNDS ss pp pp
0 0.001
0 1e-05
-0.5 0.5
ITEM: CELLS c_particles[1] 
152 
142 
157 
148 
134 
133 
145 
137 
141 
126 
129 
149 
116 
137 
120 
109 
127 
133 
118 
103 
119 
112 
113 
96 
98 
114 
108 
126 
118 
100 
133 
119 
87 
86 
105 
103 
114 
117 
111 
95 
88 
111 
95 
93 
104 
103 
116 
99 
84 
87 
83 
86 
110 
115 
105 
91 
75 
90 
77 
86 
88 
71 
92 
75 
87 
86 
88 
89 
83 
86 
87 
71 
87 
83 
91 
89 
58 
68 
81 
86 
71 
91 
88 
91 
81 
70 
75 
81 
84 
84 
77 
69 
90 
79 
77 
89 
89 
73 
87 
80 
