ITEM: TIMESTEP
2400000
ITEM: NUMBER OF CELLS
100
ITEM: BOX BOUNDS ss pp pp
0 0.001
0 1e-05
-0.5 0.5
ITEM: CELLS c_particles[1] 
156 
138 
141 
159 
143 
131 
142 
120 
127 
124 
126 
118 
132 
140 
135 
135 
117 
103 
101 
107 
124 
107 
90 
105 
95 
105 
116 
119 
115 
105 
138 
137 
106 
104 
100 
113 
112 
94 
99 
98 
115 
111 
107 
108 
100 
108 
86 
94 
101 
108 
94 
97 
82 
87 
94 
92 
75 
90 
94 
88 
77 
97 
97 
78 
93 
81 
97 
97 
94 
73 
84 
84 
104 
91 
97 
95 
89 
74 
82 
79 
87 
90 
74 
62 
76 
69 
84 
81 
82 
85 
66 
73 
77 
72 
73 
72 
75 
72 
85 
74 
