ITEM: TIMESTEP
4980000
ITEM: NUMBER OF CELLS
100
ITEM: BOX BOUNDS ss pp pp
0 0.001
0 1e-05
-0.5 0.5
ITEM: CELLS c_particles[1] 
154 
138 
125 
150 
141 
130 
125 
138 
122 
152 
118 
141 
146 
123 
119 
125 
116 
122 
137 
118 
143 
113 
107 
136 
127 
100 
113 
89 
111 
103 
117 
120 
133 
102 
121 
107 
129 
107 
105 
105 
101 
95 
100 
85 
89 
115 
99 
103 
99 
92 
83 
92 
99 
105 
110 
96 
87 
102 
81 
73 
71 
82 
84 
84 
81 
80 
95 
84 
86 
71 
78 
98 
88 
75 
82 
87 
78 
65 
87 
92 
83 
82 
72 
77 
71 
82 
80 
78 
64 
87 
68 
89 
88 
87 
79 
56 
80 
59 
64 
72 
