ITEM: TIMESTEP
885000
ITEM: NUMBER OF CELLS
100
ITEM: BOX BOUNDS ss pp pp
0 0.001
0 1e-05
-0.5 0.5
ITEM: CELLS c_particles[1] 
144 
123 
133 
135 
140 
125 
147 
141 
110 
134 
126 
135 
134 
125 
113 
121 
126 
127 
116 
147 
114 
131 
110 
129 
122 
108 
116 
108 
104 
124 
102 
104 
125 
105 
105 
109 
101 
107 
115 
106 
93 
104 
92 
91 
97 
96 
108 
79 
93 
91 
71 
86 
102 
90 
100 
106 
93 
87 
89 
94 
84 
85 
83 
103 
100 
88 
71 
85 
78 
73 
81 
82 
80 
84 
88 
82 
90 
89 
81 
66 
87 
82 
58 
86 
92 
70 
82 
76 
91 
94 
92 
82 
82 
69 
74 
101 
67 
79 
85 
69 
