ITEM: TIMESTEP
4720000
ITEM: NUMBER OF CELLS
100
ITEM: BOX BOUNDS ss pp pp
0 0.001
0 1e-05
-0.5 0.5
ITEM: CELLS c_particles[1] 
161 
151 
128 
154 
153 
137 
142 
136 
144 
142 
117 
133 
124 
130 
130 
128 
136 
134 
116 
115 
116 
101 
111 
106 
111 
115 
101 
117 
103 
104 
101 
96 
114 
92 
98 
85 
110 
107 
102 
113 
122 
98 
108 
109 
84 
88 
92 
84 
86 
94 
95 
88 
89 
104 
101 
70 
92 
96 
115 
90 
86 
83 
94 
86 
82 
107 
71 
93 
82 
96 
101 
93 
98 
89 
87 
77 
75 
90 
75 
88 
85 
76 
70 
81 
69 
65 
77 
79 
81 
86 
74 
68 
72 
82 
82 
87 
82 
80 
73 
59 
