ITEM: TIMESTEP
330000
ITEM: NUMBER OF CELLS
100
ITEM: BOX BOUNDS ss pp pp
0 0.001
0 1e-05
-0.5 0.5
ITEM: CELLS c_particles[1] 
148 
138 
131 
139 
136 
110 
158 
131 
105 
119 
132 
149 
124 
111 
105 
139 
122 
109 
109 
115 
126 
120 
107 
127 
112 
125 
102 
132 
109 
118 
116 
98 
122 
112 
102 
115 
103 
105 
97 
117 
88 
110 
88 
86 
103 
104 
91 
101 
103 
100 
81 
98 
97 
98 
90 
85 
83 
70 
75 
96 
91 
87 
81 
97 
97 
85 
104 
86 
82 
88 
85 
74 
86 
82 
94 
82 
102 
77 
79 
93 
94 
93 
85 
92 
85 
85 
72 
70 
65 
83 
96 
68 
71 
87 
63 
73 
74 
80 
100 
70 
