ITEM: TIMESTEP
1975000
ITEM: NUMBER OF CELLS
100
ITEM: BOX BOUNDS ss pp pp
0 0.001
0 1e-05
-0.5 0.5
ITEM: CELLS c_particles[1] 
125 
165 
145 
145 
146 
121 
137 
144 
126 
157 
128 
143 
134 
120 
140 
116 
112 
110 
137 
133 
119 
90 
119 
114 
121 
97 
122 
125 
95 
119 
116 
103 
90 
128 
87 
109 
110 
108 
91 
106 
132 
100 
88 
108 
106 
107 
84 
108 
72 
102 
100 
94 
97 
93 
77 
82 
94 
82 
86 
90 
88 
75 
89 
84 
80 
92 
98 
82 
80 
78 
91 
99 
83 
76 
75 
89 
93 
72 
83 
76 
82 
82 
86 
75 
84 
76 
84 
71 
89 
77 
76 
77 
79 
80 
88 
72 
87 
64 
68 
65 
