ITEM: TIMESTEP
1945000
ITEM: NUMBER OF CELLS
100
ITEM: BOX BOUNDS ss pp pp
0 0.001
0 1e-05
-0.5 0.5
ITEM: CELLS c_particles[1] 
139 
147 
153 
132 
140 
163 
133 
142 
120 
137 
134 
147 
132 
126 
125 
145 
110 
120 
117 
134 
106 
136 
129 
107 
106 
93 
118 
109 
99 
128 
112 
106 
101 
115 
118 
116 
110 
107 
85 
115 
94 
113 
104 
92 
102 
76 
105 
97 
94 
108 
87 
85 
90 
84 
110 
97 
93 
74 
109 
81 
90 
99 
73 
74 
88 
79 
82 
81 
72 
93 
88 
70 
89 
80 
89 
81 
68 
92 
84 
92 
86 
95 
73 
77 
59 
73 
77 
81 
71 
82 
84 
74 
87 
79 
74 
77 
66 
74 
68 
72 
