ITEM: TIMESTEP
760000
ITEM: NUMBER OF CELLS
100
ITEM: BOX BOUNDS ss pp pp
0 0.001
0 1e-05
-0.5 0.5
ITEM: CELLS c_particles[1] 
161 
133 
136 
140 
149 
143 
125 
149 
145 
112 
143 
142 
123 
138 
127 
131 
111 
132 
136 
122 
108 
125 
112 
125 
108 
113 
129 
116 
123 
110 
107 
109 
109 
113 
98 
99 
120 
104 
84 
99 
115 
109 
95 
114 
92 
96 
92 
107 
78 
99 
95 
91 
87 
86 
98 
91 
101 
86 
95 
86 
87 
95 
95 
90 
78 
86 
93 
97 
82 
76 
89 
80 
97 
80 
94 
85 
96 
74 
61 
95 
74 
82 
72 
85 
73 
89 
54 
66 
85 
74 
60 
70 
85 
73 
55 
71 
62 
64 
77 
77 
