ITEM: TIMESTEP
3740000
ITEM: NUMBER OF CELLS
100
ITEM: BOX BOUNDS ss pp pp
0 0.001
0 1e-05
-0.5 0.5
ITEM: CELLS c_particles[1] 
144 
144 
155 
146 
127 
138 
118 
106 
116 
132 
128 
134 
124 
126 
128 
128 
125 
127 
137 
132 
115 
109 
111 
93 
101 
121 
115 
111 
121 
116 
116 
123 
99 
111 
104 
104 
108 
82 
119 
121 
113 
96 
102 
95 
107 
92 
112 
83 
87 
99 
98 
79 
107 
94 
90 
81 
103 
82 
94 
97 
97 
97 
93 
72 
88 
95 
83 
86 
92 
86 
69 
88 
76 
110 
64 
87 
84 
87 
79 
85 
83 
89 
85 
89 
75 
71 
87 
74 
85 
76 
75 
77 
85 
59 
83 
71 
97 
68 
73 
54 
