ITEM: TIMESTEP
1575000
ITEM: NUMBER OF CELLS
100
ITEM: BOX BOUNDS ss pp pp
0 0.001
0 1e-05
-0.5 0.5
ITEM: CELLS c_particles[1] 
160 
148 
147 
133 
114 
129 
122 
119 
128 
132 
137 
139 
125 
131 
125 
136 
126 
114 
107 
115 
119 
123 
103 
105 
127 
102 
129 
126 
97 
139 
93 
111 
97 
98 
104 
106 
104 
98 
95 
122 
99 
103 
127 
105 
110 
95 
85 
91 
109 
99 
94 
108 
96 
95 
100 
75 
95 
85 
105 
69 
98 
85 
83 
76 
102 
87 
85 
94 
95 
95 
86 
80 
68 
78 
92 
79 
87 
91 
83 
80 
96 
75 
89 
74 
87 
81 
76 
64 
83 
82 
77 
68 
66 
67 
78 
77 
75 
85 
63 
83 
