ITEM: TIMESTEP
3020000
ITEM: NUMBER OF CELLS
100
ITEM: BOX BOUNDS ss pp pp
0 0.001
0 1e-05
-0.5 0.5
ITEM: CELLS c_particles[1] 
134 
129 
136 
149 
129 
131 
138 
127 
119 
147 
146 
137 
127 
134 
147 
115 
125 
125 
123 
139 
111 
115 
110 
121 
112 
128 
114 
112 
93 
101 
102 
108 
112 
114 
87 
120 
120 
104 
90 
106 
98 
108 
102 
94 
93 
103 
100 
87 
95 
87 
98 
102 
104 
92 
106 
102 
89 
100 
109 
74 
85 
80 
112 
101 
98 
74 
90 
66 
107 
98 
104 
77 
68 
77 
92 
70 
82 
92 
76 
79 
93 
81 
81 
75 
80 
78 
77 
80 
63 
77 
87 
66 
74 
79 
60 
70 
75 
70 
64 
62 
