ITEM: TIMESTEP
270000
ITEM: NUMBER OF CELLS
100
ITEM: BOX BOUNDS ss pp pp
0 0.001
0 1e-05
-0.5 0.5
ITEM: CELLS c_particles[1] 
151 
156 
157 
117 
146 
128 
130 
144 
143 
118 
137 
132 
129 
128 
117 
115 
131 
111 
140 
134 
122 
116 
104 
132 
124 
110 
103 
114 
119 
100 
110 
120 
121 
101 
111 
96 
97 
113 
98 
104 
104 
106 
101 
97 
107 
94 
95 
118 
86 
94 
94 
91 
120 
97 
76 
88 
88 
98 
95 
98 
80 
97 
82 
85 
73 
90 
74 
94 
84 
95 
69 
86 
77 
85 
72 
82 
83 
81 
71 
76 
74 
87 
80 
73 
84 
96 
76 
71 
67 
85 
70 
78 
63 
82 
89 
82 
75 
72 
70 
64 
