ITEM: TIMESTEP
3820000
ITEM: NUMBER OF CELLS
100
ITEM: BOX BOUNDS ss pp pp
0 0.001
0 1e-05
-0.5 0.5
ITEM: CELLS c_particles[1] 
133 
151 
151 
137 
140 
140 
114 
128 
132 
110 
119 
132 
133 
140 
133 
118 
139 
135 
118 
124 
109 
123 
112 
108 
116 
132 
123 
120 
98 
113 
106 
101 
102 
97 
112 
94 
107 
113 
89 
112 
102 
103 
102 
96 
109 
92 
100 
77 
88 
90 
93 
88 
105 
96 
84 
92 
97 
99 
90 
87 
95 
96 
85 
100 
86 
97 
83 
75 
90 
95 
84 
75 
75 
86 
102 
87 
80 
83 
76 
89 
76 
90 
98 
75 
92 
81 
73 
78 
79 
66 
87 
63 
72 
80 
82 
85 
67 
69 
83 
61 
