ITEM: TIMESTEP
3010000
ITEM: NUMBER OF CELLS
100
ITEM: BOX BOUNDS ss pp pp
0 0.001
0 1e-05
-0.5 0.5
ITEM: CELLS c_particles[1] 
141 
144 
142 
144 
135 
120 
141 
129 
136 
111 
118 
142 
124 
117 
134 
142 
131 
143 
144 
111 
108 
124 
89 
117 
103 
102 
112 
100 
109 
113 
111 
94 
99 
109 
105 
104 
105 
90 
113 
101 
93 
107 
121 
107 
104 
83 
112 
98 
93 
99 
91 
100 
89 
107 
99 
98 
85 
88 
95 
88 
89 
82 
89 
79 
89 
85 
86 
91 
98 
93 
90 
92 
63 
74 
99 
87 
88 
87 
83 
89 
76 
82 
90 
68 
89 
76 
89 
67 
72 
71 
74 
60 
71 
71 
63 
94 
92 
90 
77 
81 
