ITEM: TIMESTEP
950000
ITEM: NUMBER OF CELLS
100
ITEM: BOX BOUNDS ss pp pp
0 0.001
0 1e-05
-0.5 0.5
ITEM: CELLS c_particles[1] 
152 
160 
146 
141 
147 
138 
143 
141 
129 
142 
142 
132 
139 
100 
117 
128 
133 
104 
127 
105 
118 
123 
122 
114 
100 
105 
109 
131 
125 
98 
101 
102 
122 
102 
113 
97 
98 
99 
95 
91 
95 
93 
92 
115 
104 
103 
100 
111 
101 
106 
102 
102 
101 
100 
86 
78 
100 
92 
86 
97 
73 
86 
74 
76 
92 
98 
89 
82 
77 
79 
82 
81 
76 
93 
90 
81 
85 
95 
86 
87 
76 
84 
85 
81 
78 
81 
68 
88 
80 
69 
82 
68 
84 
74 
72 
60 
89 
61 
85 
58 
