ITEM: TIMESTEP
3980000
ITEM: NUMBER OF CELLS
100
ITEM: BOX BOUNDS ss pp pp
0 0.001
0 1e-05
-0.5 0.5
ITEM: CELLS c_particles[1] 
153 
146 
170 
149 
135 
135 
135 
136 
131 
120 
125 
123 
114 
121 
139 
124 
119 
104 
133 
133 
100 
111 
105 
120 
110 
124 
116 
112 
114 
103 
109 
111 
106 
115 
108 
105 
107 
108 
123 
106 
94 
90 
94 
105 
104 
100 
77 
89 
86 
100 
85 
102 
92 
90 
87 
80 
94 
85 
94 
100 
91 
85 
74 
85 
99 
84 
82 
85 
82 
85 
78 
78 
84 
94 
94 
90 
71 
86 
80 
83 
84 
81 
84 
79 
81 
77 
77 
89 
82 
86 
69 
73 
65 
78 
89 
93 
78 
90 
78 
71 
