ITEM: TIMESTEP
440000
ITEM: NUMBER OF CELLS
100
ITEM: BOX BOUNDS ss pp pp
0 0.001
0 1e-05
-0.5 0.5
ITEM: CELLS c_particles[1] 
144 
152 
144 
130 
132 
105 
148 
112 
150 
119 
118 
137 
132 
125 
119 
112 
125 
116 
125 
133 
107 
125 
120 
100 
108 
127 
114 
143 
108 
114 
131 
126 
126 
111 
113 
101 
89 
106 
109 
95 
92 
95 
85 
88 
103 
91 
112 
108 
83 
106 
97 
92 
104 
100 
79 
77 
79 
93 
91 
101 
93 
78 
104 
104 
95 
94 
90 
88 
91 
89 
68 
93 
71 
83 
87 
82 
79 
87 
87 
86 
65 
63 
72 
80 
88 
85 
87 
68 
83 
66 
82 
74 
82 
77 
75 
81 
91 
70 
77 
58 
