ITEM: TIMESTEP
2200000
ITEM: NUMBER OF CELLS
100
ITEM: BOX BOUNDS ss pp pp
0 0.001
0 1e-05
-0.5 0.5
ITEM: CELLS c_particles[1] 
165 
154 
166 
137 
135 
119 
151 
123 
134 
127 
138 
113 
132 
117 
130 
114 
117 
132 
120 
122 
125 
108 
116 
98 
120 
101 
114 
90 
94 
105 
105 
120 
117 
123 
70 
88 
102 
103 
98 
111 
110 
113 
118 
104 
109 
84 
115 
77 
108 
94 
106 
86 
85 
89 
85 
105 
84 
90 
111 
88 
85 
93 
78 
83 
81 
72 
80 
86 
97 
94 
81 
79 
97 
76 
82 
78 
95 
77 
91 
82 
92 
76 
77 
93 
83 
77 
74 
92 
78 
74 
82 
84 
72 
80 
82 
84 
85 
73 
61 
79 
