ITEM: TIMESTEP
1825000
ITEM: NUMBER OF CELLS
100
ITEM: BOX BOUNDS ss pp pp
0 0.001
0 1e-05
-0.5 0.5
ITEM: CELLS c_particles[1] 
168 
148 
145 
137 
139 
136 
123 
123 
136 
119 
142 
149 
125 
128 
123 
138 
122 
133 
115 
105 
119 
107 
109 
107 
117 
98 
101 
108 
120 
114 
104 
128 
102 
127 
113 
98 
116 
111 
98 
98 
95 
116 
104 
110 
84 
92 
88 
113 
85 
97 
99 
110 
78 
80 
95 
98 
91 
90 
78 
72 
103 
88 
92 
93 
102 
101 
74 
83 
86 
82 
86 
81 
69 
73 
75 
90 
77 
91 
76 
80 
76 
79 
90 
82 
86 
81 
79 
80 
96 
89 
70 
64 
67 
72 
70 
77 
75 
83 
78 
80 
