ITEM: TIMESTEP
3290000
ITEM: NUMBER OF CELLS
100
ITEM: BOX BOUNDS ss pp pp
0 0.001
0 1e-05
-0.5 0.5
ITEM: CELLS c_particles[1] 
141 
166 
111 
139 
158 
106 
140 
142 
107 
145 
115 
132 
137 
127 
119 
146 
117 
104 
116 
148 
114 
121 
140 
114 
124 
101 
124 
94 
99 
109 
112 
98 
110 
111 
112 
125 
117 
117 
101 
95 
91 
89 
87 
97 
97 
91 
104 
104 
104 
91 
99 
80 
90 
93 
103 
82 
72 
89 
96 
91 
84 
93 
93 
79 
102 
71 
92 
74 
85 
83 
88 
97 
68 
90 
77 
85 
83 
82 
90 
88 
77 
91 
95 
82 
78 
70 
81 
79 
61 
86 
98 
80 
77 
84 
72 
83 
91 
69 
68 
70 
