ITEM: TIMESTEP
3430000
ITEM: NUMBER OF CELLS
100
ITEM: BOX BOUNDS ss pp pp
0 0.001
0 1e-05
-0.5 0.5
ITEM: CELLS c_particles[1] 
149 
142 
140 
145 
154 
136 
136 
117 
132 
135 
133 
142 
121 
140 
128 
127 
127 
129 
134 
116 
119 
106 
110 
94 
126 
109 
99 
88 
115 
123 
109 
105 
107 
108 
96 
89 
113 
97 
111 
122 
109 
102 
93 
120 
116 
85 
81 
96 
87 
75 
113 
100 
79 
96 
106 
74 
93 
91 
88 
85 
103 
109 
101 
98 
84 
98 
78 
81 
83 
95 
106 
99 
89 
76 
87 
86 
91 
86 
77 
92 
63 
63 
78 
66 
85 
84 
74 
76 
56 
85 
75 
78 
83 
70 
77 
74 
66 
74 
67 
69 
