ITEM: TIMESTEP
2270000
ITEM: NUMBER OF CELLS
100
ITEM: BOX BOUNDS ss pp pp
0 0.001
0 1e-05
-0.5 0.5
ITEM: CELLS c_particles[1] 
175 
155 
138 
139 
157 
165 
111 
124 
125 
129 
131 
126 
131 
128 
122 
96 
120 
120 
130 
117 
116 
115 
114 
105 
100 
113 
105 
96 
102 
117 
115 
103 
107 
126 
86 
105 
114 
117 
96 
101 
109 
124 
110 
82 
99 
100 
100 
93 
101 
96 
99 
92 
103 
96 
94 
85 
92 
101 
104 
90 
92 
80 
97 
90 
93 
97 
78 
81 
79 
92 
96 
65 
94 
101 
97 
88 
81 
74 
71 
65 
79 
87 
82 
72 
82 
78 
101 
73 
66 
75 
63 
77 
68 
82 
92 
85 
65 
63 
78 
59 
