ITEM: TIMESTEP
450000
ITEM: NUMBER OF CELLS
100
ITEM: BOX BOUNDS ss pp pp
0 0.001
0 1e-05
-0.5 0.5
ITEM: CELLS c_particles[1] 
151 
143 
147 
142 
150 
151 
138 
143 
146 
147 
131 
130 
120 
127 
136 
119 
112 
92 
106 
118 
128 
99 
96 
110 
114 
105 
119 
109 
108 
100 
122 
94 
115 
94 
104 
113 
95 
110 
106 
92 
94 
89 
96 
106 
111 
87 
111 
94 
111 
104 
94 
78 
81 
94 
101 
100 
98 
89 
103 
97 
95 
87 
80 
80 
91 
83 
86 
79 
89 
74 
86 
99 
86 
89 
69 
89 
91 
102 
89 
75 
89 
68 
68 
90 
78 
71 
88 
78 
88 
85 
85 
86 
64 
82 
76 
75 
55 
86 
80 
69 
