ITEM: TIMESTEP
2800000
ITEM: NUMBER OF CELLS
100
ITEM: BOX BOUNDS ss pp pp
0 0.001
0 1e-05
-0.5 0.5
ITEM: CELLS c_particles[1] 
147 
155 
167 
131 
119 
137 
134 
152 
120 
133 
131 
137 
143 
138 
132 
130 
120 
128 
127 
99 
117 
92 
113 
100 
118 
106 
124 
115 
116 
118 
109 
107 
99 
104 
117 
100 
110 
108 
116 
92 
94 
110 
106 
97 
93 
97 
85 
93 
114 
116 
100 
87 
86 
69 
111 
101 
102 
75 
95 
97 
103 
83 
93 
82 
92 
80 
89 
78 
85 
93 
80 
87 
89 
82 
86 
66 
74 
90 
91 
85 
83 
73 
94 
77 
90 
91 
72 
72 
69 
78 
84 
74 
70 
78 
72 
61 
59 
60 
76 
70 
