ITEM: TIMESTEP
4150000
ITEM: NUMBER OF CELLS
100
ITEM: BOX BOUNDS ss pp pp
0 0.001
0 1e-05
-0.5 0.5
ITEM: CELLS c_particles[1] 
146 
141 
148 
139 
126 
144 
137 
145 
136 
144 
125 
110 
148 
137 
121 
132 
126 
112 
118 
119 
107 
119 
108 
131 
117 
114 
113 
105 
105 
96 
105 
106 
102 
99 
116 
95 
95 
116 
116 
96 
92 
85 
84 
111 
86 
106 
106 
107 
82 
80 
90 
83 
91 
106 
100 
81 
82 
79 
89 
109 
90 
91 
102 
103 
82 
75 
91 
90 
83 
86 
99 
94 
91 
84 
72 
107 
102 
95 
77 
90 
77 
80 
63 
86 
66 
82 
73 
84 
85 
82 
61 
75 
75 
76 
71 
86 
80 
79 
66 
85 
