ITEM: TIMESTEP
1790000
ITEM: NUMBER OF CELLS
100
ITEM: BOX BOUNDS ss pp pp
0 0.001
0 1e-05
-0.5 0.5
ITEM: CELLS c_particles[1] 
147 
127 
142 
131 
142 
162 
137 
135 
121 
126 
132 
141 
120 
138 
143 
120 
115 
126 
104 
116 
113 
109 
136 
103 
118 
106 
121 
104 
107 
128 
103 
110 
116 
101 
124 
84 
107 
107 
110 
116 
91 
107 
114 
80 
87 
99 
79 
90 
81 
91 
117 
103 
90 
104 
107 
90 
90 
91 
89 
73 
100 
92 
71 
98 
95 
79 
88 
97 
92 
90 
74 
86 
76 
82 
72 
75 
71 
65 
68 
84 
84 
86 
77 
91 
101 
71 
88 
82 
68 
77 
86 
63 
81 
76 
88 
72 
82 
84 
83 
84 
