ITEM: TIMESTEP
260000
ITEM: NUMBER OF CELLS
100
ITEM: BOX BOUNDS ss pp pp
0 0.001
0 1e-05
-0.5 0.5
ITEM: CELLS c_particles[1] 
137 
143 
162 
141 
129 
135 
144 
138 
154 
114 
126 
138 
116 
132 
115 
116 
127 
122 
122 
113 
108 
116 
127 
101 
128 
112 
118 
119 
101 
105 
94 
116 
115 
101 
123 
129 
106 
117 
107 
100 
107 
95 
96 
106 
101 
93 
93 
104 
88 
100 
88 
91 
92 
98 
78 
100 
100 
84 
96 
90 
90 
98 
102 
82 
73 
94 
102 
92 
79 
81 
75 
87 
84 
94 
83 
81 
81 
93 
79 
78 
68 
81 
80 
75 
84 
82 
74 
83 
77 
80 
77 
74 
81 
75 
66 
70 
70 
67 
77 
64 
