ITEM: TIMESTEP
85000
ITEM: NUMBER OF CELLS
100
ITEM: BOX BOUNDS ss pp pp
0 0.001
0 1e-05
-0.5 0.5
ITEM: CELLS c_particles[1] 
145 
160 
150 
162 
145 
154 
135 
117 
132 
135 
137 
119 
131 
147 
127 
116 
124 
134 
120 
108 
120 
126 
127 
132 
110 
117 
119 
104 
98 
100 
105 
100 
100 
117 
99 
106 
107 
105 
93 
105 
115 
108 
88 
103 
87 
98 
97 
81 
93 
85 
99 
88 
101 
88 
104 
90 
95 
84 
71 
104 
76 
86 
83 
80 
79 
85 
91 
84 
73 
90 
81 
99 
104 
87 
75 
83 
87 
96 
88 
87 
64 
87 
80 
78 
61 
76 
71 
80 
96 
80 
82 
66 
75 
66 
62 
87 
67 
79 
84 
78 
