ITEM: TIMESTEP
4120000
ITEM: NUMBER OF CELLS
100
ITEM: BOX BOUNDS ss pp pp
0 0.001
0 1e-05
-0.5 0.5
ITEM: CELLS c_particles[1] 
153 
163 
143 
151 
155 
132 
127 
110 
129 
133 
129 
128 
148 
131 
121 
122 
136 
129 
106 
126 
139 
117 
129 
120 
114 
120 
138 
95 
105 
111 
112 
121 
100 
98 
97 
108 
106 
90 
106 
108 
109 
99 
93 
83 
99 
85 
108 
101 
100 
97 
70 
92 
99 
92 
86 
99 
84 
94 
104 
90 
89 
64 
88 
100 
83 
114 
78 
88 
103 
65 
76 
80 
80 
75 
69 
68 
74 
91 
78 
76 
94 
97 
69 
81 
81 
67 
90 
90 
81 
75 
66 
78 
64 
88 
81 
80 
66 
75 
70 
78 
