ITEM: TIMESTEP
740000
ITEM: NUMBER OF CELLS
100
ITEM: BOX BOUNDS ss pp pp
0 0.001
0 1e-05
-0.5 0.5
ITEM: CELLS f_temp1[*] 
346.84 
355.25 
362.206 
367.813 
373.079 
378.194 
383.34 
387.668 
392.652 
397.129 
402.208 
406.662 
410.329 
414.643 
418.978 
422.98 
426.424 
430.758 
434.764 
439.608 
443.488 
447.036 
450.943 
452.611 
456.5 
461.613 
466.361 
469.975 
474.185 
477.593 
481.338 
483.647 
487.608 
490.826 
494.309 
497.943 
501.25 
505.021 
508.287 
511.583 
513.621 
517.347 
520.95 
525.881 
529.494 
532.109 
536.566 
538.629 
541.826 
545.704 
549.103 
553.909 
556.29 
560.729 
562.015 
566.366 
567.919 
571.079 
573.198 
578.098 
581.587 
583.453 
587.646 
589.751 
593.915 
598.164 
601.062 
602.993 
606.531 
609.945 
612.089 
615.907 
619.049 
622.262 
626.431 
630.367 
632.03 
639.688 
636.015 
642.178 
645.578 
648.543 
652.738 
655.334 
658.877 
662.033 
665.429 
673.267 
670.094 
675.753 
680.625 
682.351 
686.807 
691.306 
696.392 
702.376 
704.047 
710.165 
715.419 
722.895 
