ITEM: TIMESTEP
1400000
ITEM: NUMBER OF CELLS
100
ITEM: BOX BOUNDS ss pp pp
0 0.001
0 1e-05
-0.5 0.5
ITEM: CELLS f_temp1[*] 
346.737 
354.973 
361.513 
367.29 
373.254 
378.711 
382.795 
387.367 
391.526 
396.737 
400.58 
404.748 
409.04 
413.559 
417.694 
422.074 
425.562 
429.353 
433.018 
436.617 
439.769 
444.214 
448.723 
453.323 
456.486 
460.496 
464.996 
468.816 
472.461 
476.211 
479.954 
483.559 
486.425 
489.658 
494.89 
496.113 
500.86 
503.224 
506.983 
510.881 
514.055 
516.962 
520.075 
524.476 
526.447 
531.008 
536.318 
538.744 
542.421 
545.99 
547.368 
549.749 
554.685 
557.207 
561.683 
563.776 
566.876 
570.141 
573.715 
576.562 
579.799 
583.839 
585.809 
589.944 
593.49 
596.127 
597.994 
602.842 
605.126 
609.095 
612.594 
613.604 
617.724 
622.189 
624.69 
628.316 
631.484 
639.228 
635.394 
641.546 
644.726 
647.339 
650.824 
653.535 
658.224 
658.946 
664.079 
672.239 
667.887 
676.58 
678 
681.312 
686.487 
690.095 
695.164 
700.053 
703.546 
709.217 
716.396 
722.024 
