ITEM: TIMESTEP
3480000
ITEM: NUMBER OF CELLS
100
ITEM: BOX BOUNDS ss pp pp
0 0.001
0 1e-05
-0.5 0.5
ITEM: CELLS f_temp1[*] 
347.553 
354.73 
361.175 
366.873 
373.711 
379.154 
383.811 
388.084 
393.239 
397.752 
401.593 
405.387 
410.827 
414.612 
418.564 
422.695 
427.244 
430.435 
435.152 
438.676 
442.399 
445.235 
449.684 
454.128 
457.461 
461.229 
465.202 
468.301 
471.319 
474.703 
479.76 
483.18 
486.591 
490.267 
493.397 
496.952 
500.666 
503.368 
507.672 
511.315 
514.044 
517.959 
521.884 
526.227 
528.357 
531.426 
534.478 
536.941 
541.073 
544.108 
545.846 
549.845 
554.012 
556.464 
560.305 
562.937 
566.203 
569.855 
572.982 
575.434 
578.414 
583.264 
585.823 
589.963 
593.922 
597.189 
599.349 
601.281 
606.591 
608.661 
612.201 
614.366 
617.463 
620.836 
623.307 
627.954 
631.439 
637.373 
634.178 
638.888 
643.285 
646.43 
649.893 
654.153 
656.333 
660.771 
664.272 
671.328 
667.961 
675.212 
678.273 
681.787 
686.345 
689.485 
693.364 
697.921 
702.642 
707.019 
713.069 
721.039 
