ITEM: TIMESTEP
4860000
ITEM: NUMBER OF CELLS
100
ITEM: BOX BOUNDS ss pp pp
0 0.001
0 1e-05
-0.5 0.5
ITEM: CELLS f_temp1[*] 
346.79 
354.327 
361.078 
366.875 
372.266 
377.821 
382.331 
387.817 
391.604 
395.519 
400.587 
404.9 
409.658 
413.137 
417.746 
422.062 
425.346 
429.061 
433.825 
437.479 
441.043 
445.563 
449.73 
454.019 
455.903 
459.821 
463.724 
466.967 
470.67 
475.33 
478.158 
482.258 
487.382 
489.888 
493.217 
496.591 
500.56 
504.253 
507.432 
510.843 
515.307 
520.018 
522.647 
524.506 
528.546 
532.014 
535.662 
537.973 
540.866 
544.265 
548.35 
552.12 
554.536 
558.694 
561.408 
564.464 
567.019 
571.452 
574.751 
579.214 
581.866 
585.368 
588.172 
592.228 
594.367 
597.212 
599.86 
604.891 
606.757 
611.817 
614.172 
617.129 
619.609 
621.131 
625.218 
629.176 
632.018 
640.433 
637.63 
642.043 
646.368 
648.823 
651.14 
653.559 
658.779 
661.613 
665.257 
670.896 
666.859 
674.783 
678.779 
681.726 
686.73 
690.964 
694.245 
700.432 
703.958 
710.994 
716.46 
720.733 
