ITEM: TIMESTEP
610000
ITEM: NUMBER OF CELLS
100
ITEM: BOX BOUNDS ss pp pp
0 0.001
0 1e-05
-0.5 0.5
ITEM: CELLS f_temp1[*] 
346.539 
354.418 
360.744 
366.917 
372.293 
377.048 
381.706 
387.664 
391.966 
396.118 
401.481 
405.069 
409.165 
414.093 
418.97 
422.771 
427.257 
430.812 
434.835 
438.562 
440.828 
444.921 
448.564 
453.258 
456.531 
460.152 
464.007 
467.193 
470.627 
476.2 
479.708 
481.554 
485.064 
488.988 
493.077 
495.991 
498.766 
502.441 
505.949 
510.447 
513.109 
516.488 
520.786 
525.243 
527.361 
531.81 
533.633 
538.121 
541.916 
545.84 
549.212 
551.744 
555.723 
558.05 
562.569 
563.717 
567.159 
570.575 
573.371 
576.749 
579.352 
583.838 
587.571 
591.144 
593.879 
596.945 
600.313 
604.002 
606.793 
609.796 
612.196 
615.816 
618.241 
622.62 
625.245 
629.508 
633.44 
638.967 
636.56 
642.501 
645.026 
647.699 
651.688 
655.655 
658.725 
662.015 
664.492 
670.778 
667.213 
675.53 
680.428 
684.998 
687.842 
692.707 
697.194 
701.148 
706.188 
708.655 
716.566 
722.969 
