ITEM: TIMESTEP
2325000
ITEM: NUMBER OF CELLS
100
ITEM: BOX BOUNDS ss pp pp
0 0.001
0 1e-05
-0.5 0.5
ITEM: CELLS f_temp1[*] 
346.516 
354.602 
360.378 
365.455 
371.382 
376.787 
380.967 
385.232 
390.019 
394.329 
399.942 
402.8 
406.74 
412.225 
416.115 
419.675 
424.882 
427.724 
431.269 
436.028 
441.8 
443.809 
449.073 
452.389 
454.667 
458.553 
461.899 
466.283 
470.471 
473.528 
478.573 
481.17 
486.105 
489.415 
494.26 
496.715 
499.712 
504.29 
505.308 
509.607 
513.721 
517.747 
518.851 
523.743 
527.351 
530.741 
533.854 
536.014 
540.055 
545.582 
549.568 
548.81 
554.031 
557.928 
562.639 
563.859 
567.976 
569.718 
574.802 
578.04 
581.097 
583.405 
587.111 
589.586 
591.637 
597.286 
600.127 
604.278 
605.544 
609.643 
613.898 
615.041 
617.319 
622.734 
623.564 
627.575 
631.831 
637.035 
634.19 
638.853 
643.315 
646.598 
649.388 
651.764 
657.174 
660.655 
664.026 
671.324 
668.84 
674.236 
677.756 
683.006 
685.216 
690.244 
693.11 
698.084 
699.42 
705.964 
713.144 
719.569 
