ITEM: TIMESTEP
565000
ITEM: NUMBER OF CELLS
100
ITEM: BOX BOUNDS ss pp pp
0 0.001
0 1e-05
-0.5 0.5
ITEM: CELLS f_temp1[*] 
347.403 
355.129 
361.633 
367.836 
372.498 
377.232 
381.318 
388.953 
392.933 
398.088 
401.606 
406.737 
410.467 
414.403 
418.252 
421.646 
424.903 
429.165 
432.997 
437.779 
442.036 
446.825 
450.824 
454.318 
459.79 
462.353 
466.102 
469.945 
474.484 
478.222 
480.209 
483.831 
487.702 
492.628 
494.709 
498.23 
502.261 
506.923 
510.457 
513.996 
516.702 
522.386 
524.006 
528.275 
529.974 
533.201 
538.466 
543.302 
544.854 
547.947 
551.259 
554.276 
556.046 
559.87 
563.724 
566.669 
570.375 
572.339 
575.381 
579.661 
583.636 
587.447 
593.358 
596.063 
597.54 
599.574 
602.879 
605.088 
608.327 
609.107 
615.648 
617.337 
619.575 
623.796 
626.918 
630.437 
634.252 
643.075 
640.267 
646.834 
648.838 
650.036 
654.65 
657.511 
659.296 
663.153 
666.626 
673.622 
670.156 
676.937 
681.197 
685.87 
687.73 
693.27 
698.296 
701.426 
707.584 
712.541 
719.417 
724.233 
