ITEM: TIMESTEP
165000
ITEM: NUMBER OF CELLS
100
ITEM: BOX BOUNDS ss pp pp
0 0.001
0 1e-05
-0.5 0.5
ITEM: CELLS f_temp1[*] 
347.485 
355.384 
362.232 
367.382 
373.657 
379.319 
383.587 
388.638 
392.64 
396.95 
400.568 
405.905 
409.744 
414.437 
417.395 
421.958 
428.265 
431.181 
435.947 
439.345 
443.382 
447.291 
451.216 
454.675 
457.921 
463.331 
465.789 
470.364 
474.239 
477.873 
481.188 
482.798 
488.462 
492.413 
495.943 
500.378 
502.643 
506.071 
509.37 
512.796 
516.705 
517.857 
524.513 
526.693 
531.725 
535.064 
535.344 
539.625 
545.336 
548.191 
551.932 
556.024 
559.426 
561.857 
563.63 
567.598 
572.424 
575.246 
576.4 
580.361 
585.363 
586.593 
590.869 
591.288 
594.28 
598.829 
603.191 
605.551 
608.607 
611.334 
612.843 
618.209 
622.88 
625.338 
629.66 
632.962 
636.069 
640.392 
637.312 
645.036 
648.119 
650.611 
655.275 
657.468 
660.414 
664.691 
669.268 
675.805 
671.442 
678.59 
682.447 
685.225 
687.394 
690.365 
696.634 
698.796 
705.918 
710.148 
716.16 
720.997 
