ITEM: TIMESTEP
160000
ITEM: NUMBER OF CELLS
100
ITEM: BOX BOUNDS ss pp pp
0 0.001
0 1e-05
-0.5 0.5
ITEM: CELLS f_temp1[*] 
347.395 
355.854 
362.104 
366.866 
373.158 
378.537 
383.588 
387.822 
393.044 
396.864 
401.481 
406.099 
409.617 
414.502 
419.116 
421.7 
426.137 
429.864 
434.229 
439.354 
442.794 
445.523 
450.017 
454.271 
458.186 
461.471 
464.567 
468.898 
472.546 
476.701 
480.322 
483.849 
486.856 
490.205 
493.995 
498.243 
501.482 
503.876 
508.882 
512.251 
515.469 
519.174 
521.462 
526.091 
528.376 
532.59 
534.699 
539.206 
541.78 
544.796 
549.417 
551.4 
556.392 
558.779 
563.405 
566.276 
568.804 
572.843 
576.023 
577.794 
582.538 
585.472 
588.084 
589.965 
592.05 
594.567 
597.712 
603.082 
605.668 
609.344 
613.394 
616.332 
619.199 
622.145 
626.5 
629.591 
633.532 
640.255 
638.025 
644.145 
647.987 
652.03 
654.743 
656.06 
659.763 
662.468 
666.075 
673.578 
670.306 
678.202 
680.834 
684.029 
688.847 
692.109 
697.41 
702.261 
708.382 
712.388 
717.388 
723.546 
