ITEM: TIMESTEP
4760000
ITEM: NUMBER OF CELLS
100
ITEM: BOX BOUNDS ss pp pp
0 0.001
0 1e-05
-0.5 0.5
ITEM: CELLS f_temp1[*] 
346.859 
355.188 
362.046 
367.431 
373.28 
378.675 
383.122 
388.196 
392.32 
396.669 
400.699 
405.915 
410.698 
414.28 
417.445 
421.313 
425.167 
429.191 
434.269 
437.931 
442.681 
446.246 
450.234 
453.237 
458.098 
461.149 
464.202 
468.65 
472.937 
475.982 
478.545 
483.208 
486.696 
491.123 
494.405 
498.688 
501.544 
504.908 
508.324 
511.261 
514.884 
517.514 
521.103 
525.482 
527.759 
530.701 
532.972 
538.446 
543.2 
546.591 
548.302 
551.2 
555.199 
558.914 
562.048 
564.827 
568.554 
572.721 
575.455 
579.645 
582.531 
585.999 
590.014 
593.354 
595.318 
598.522 
602.832 
606.619 
608.974 
611.884 
614.637 
616.542 
619.784 
622.233 
625.59 
629.119 
632.771 
639.308 
636.069 
641.894 
645.738 
649.122 
654.446 
656.251 
659.528 
663.427 
665.953 
672.142 
668.628 
677.759 
680.462 
684.103 
686.929 
688.875 
694.016 
698.098 
702.951 
707.925 
714.692 
720.489 
