ITEM: TIMESTEP
865000
ITEM: NUMBER OF CELLS
100
ITEM: BOX BOUNDS ss pp pp
0 0.001
0 1e-05
-0.5 0.5
ITEM: CELLS f_temp1[*] 
346.063 
355.489 
360.666 
366.753 
372.434 
376.397 
381.249 
386.568 
391.452 
396.056 
400.491 
406.476 
409.469 
413.479 
417.268 
420.839 
424.698 
428.162 
433.756 
438.758 
443.037 
446.431 
451.947 
454.542 
459.005 
464.025 
466.407 
469.715 
472.36 
477.527 
482.76 
484.701 
488.058 
491.924 
493.755 
497.253 
502.53 
507.747 
509.869 
512.504 
517.064 
520.931 
524.042 
527.726 
530.578 
534.535 
538.902 
543.173 
545.832 
549.359 
553.084 
554.882 
559.28 
562.143 
564.938 
569.295 
570.812 
576.841 
581.294 
583.856 
586.899 
589.289 
592.691 
597.754 
599.827 
602.175 
603.951 
609.391 
609.988 
610.422 
616.182 
617.924 
621.131 
624.865 
630.015 
632.075 
635.961 
643.655 
640.724 
648.865 
653.745 
654.359 
655.59 
658.786 
659.843 
662.237 
665.935 
672.605 
669.606 
679.998 
683.995 
687.216 
690.025 
692.494 
696.526 
702.651 
706.26 
708.451 
714.64 
720.7 
