ITEM: TIMESTEP
1455000
ITEM: NUMBER OF CELLS
100
ITEM: BOX BOUNDS ss pp pp
0 0.001
0 1e-05
-0.5 0.5
ITEM: CELLS f_temp1[*] 
346.45 
356.147 
361.921 
368.293 
373.366 
378.528 
382.361 
386.885 
390.929 
396.185 
400.058 
405.278 
409.404 
413.222 
417.503 
422.145 
426.135 
430.762 
433.893 
436.835 
440.743 
445.275 
450.42 
454.131 
457.246 
460.959 
466.74 
469.094 
472.973 
476.358 
480.555 
484.668 
489.532 
492.679 
496.033 
501.085 
501.889 
505.404 
511.28 
513.579 
516.765 
518.287 
520.239 
524.318 
527.983 
531.321 
535.808 
539.556 
543.087 
547.548 
551.239 
552.232 
555.32 
559.429 
562.463 
566.341 
568.675 
571.7 
574.128 
577.698 
579.27 
581.271 
584.866 
589.536 
591.886 
598.348 
601.902 
605.19 
608.559 
610.353 
613.835 
616.805 
619.61 
623.031 
624.215 
628.381 
633.968 
635.089 
633.225 
640.161 
644.961 
649.644 
650.493 
655.964 
657.574 
659.516 
664.291 
673.816 
669.164 
675.138 
678.102 
683.586 
686.651 
691.291 
693.521 
699.362 
702.923 
708.802 
714.595 
719.504 
