ITEM: TIMESTEP
1830000
ITEM: NUMBER OF CELLS
100
ITEM: BOX BOUNDS ss pp pp
0 0.001
0 1e-05
-0.5 0.5
ITEM: CELLS f_temp1[*] 
346.359 
354.488 
360.825 
366.731 
370.925 
375.726 
381.757 
387.133 
391.513 
396.735 
400.793 
404.94 
409.719 
413.511 
417.665 
422.014 
426.125 
429.734 
434.138 
438.843 
442.728 
446.752 
450.302 
454.66 
458.461 
461.493 
465.847 
469.47 
472.06 
475.345 
479.442 
483.356 
487.067 
490.654 
494.056 
498.337 
502.4 
506.041 
509.767 
512.58 
515.695 
518.628 
522.468 
525.203 
528.277 
532.692 
536.196 
539.6 
543.98 
546.551 
548.79 
550.96 
554.841 
558.11 
561.105 
565.705 
567.502 
571.086 
574.049 
577.715 
580.646 
584.398 
587.344 
590.865 
594.784 
598.489 
602.055 
604.429 
607.05 
611.235 
613.491 
616.936 
619.776 
623.497 
627.002 
632.133 
632.947 
639.621 
636.694 
644.014 
648.107 
650.103 
653.735 
656.94 
660.585 
665.226 
667.861 
674.071 
672.002 
678.008 
681.679 
685.814 
688.769 
691.112 
695.948 
700.108 
705.736 
711.547 
714.889 
721.522 
