ITEM: TIMESTEP
4900000
ITEM: NUMBER OF CELLS
100
ITEM: BOX BOUNDS ss pp pp
0 0.001
0 1e-05
-0.5 0.5
ITEM: CELLS f_temp1[*] 
347.002 
355.189 
362.079 
367.711 
372.404 
377.751 
382.966 
387.395 
392.643 
398.048 
402.014 
406.222 
410.496 
414.42 
418.698 
422.845 
427.966 
431.436 
434.831 
438.707 
442.575 
445.855 
449.511 
454.747 
458.101 
461.431 
464.92 
467.397 
471.457 
475.113 
479.05 
481.664 
487.175 
491.51 
494.225 
496.556 
500.458 
503.826 
508.377 
511.799 
514.741 
518.702 
520.388 
526.004 
528.032 
531.54 
536.153 
538.538 
540.881 
546.018 
547.186 
550.954 
554.695 
559.031 
561.784 
564.301 
568.031 
571.818 
574.998 
578.143 
581.179 
584.722 
588.959 
594.333 
596.549 
600.07 
601.741 
603.547 
606.449 
610.506 
614.163 
617.8 
622.67 
623.686 
626.314 
629.971 
633.559 
640.751 
637.852 
642.174 
645.718 
648.713 
653.306 
656.596 
660.673 
662.527 
665.264 
672.258 
668.953 
675.752 
680.752 
683.789 
687.67 
692.041 
696.394 
700.535 
704.984 
710.141 
715.423 
721.875 
