ITEM: TIMESTEP
1570000
ITEM: NUMBER OF CELLS
100
ITEM: BOX BOUNDS ss pp pp
0 0.001
0 1e-05
-0.5 0.5
ITEM: CELLS f_temp1[*] 
347.118 
355.538 
361.596 
367.635 
373.538 
378.962 
383.085 
388.094 
393.029 
397.238 
401.985 
405.762 
409.295 
413.9 
417.388 
421.528 
425.301 
429.897 
434.349 
437.941 
441.021 
445.879 
449.368 
453.673 
457.032 
460.477 
464.699 
468.43 
472.697 
476.582 
480.652 
484.24 
487.293 
491.338 
494.681 
497.516 
500.043 
503.659 
509 
512.287 
514.852 
518.822 
522.41 
525.957 
529.389 
532.566 
535.521 
538.46 
542.226 
545.571 
549.889 
552.093 
554.55 
558.833 
561.145 
565.26 
569.054 
572.707 
576.644 
579.407 
582.484 
585.622 
587.662 
591.369 
594.842 
599.102 
600.823 
604.917 
606.723 
612.32 
614.707 
618.371 
621.132 
622.678 
627.667 
630.341 
633.461 
640.289 
635.535 
643.726 
646.603 
649.214 
652.674 
656.665 
660.955 
663.635 
667.598 
674.662 
670.7 
676.598 
679.545 
683.938 
688.66 
693.767 
698.387 
702.421 
706.147 
710.237 
714.585 
722.271 
