ITEM: TIMESTEP
2375000
ITEM: NUMBER OF CELLS
100
ITEM: BOX BOUNDS ss pp pp
0 0.001
0 1e-05
-0.5 0.5
ITEM: CELLS f_temp1[*] 
346.936 
355.116 
361.813 
368.988 
373.715 
380.588 
384.257 
389.173 
392.115 
397.104 
401.28 
404.461 
409.389 
412.856 
416.258 
421.694 
424.864 
428.705 
432.293 
436.417 
441.943 
444.764 
449.32 
453.579 
456.689 
461.715 
465.066 
469.027 
473.206 
477.469 
479.099 
481.658 
485.802 
488.828 
493.576 
496.179 
501.694 
504.427 
507.067 
511.542 
516.828 
520.132 
523.556 
525.842 
527.737 
531.791 
535.184 
539.963 
544.109 
545.408 
547.991 
551.278 
556.662 
560.299 
562.102 
565.298 
568.37 
572.878 
576.07 
579.1 
583.727 
586.385 
589.802 
593.789 
597.207 
600.437 
604.074 
609.569 
608.402 
612.691 
613.838 
617.734 
623.074 
625.966 
628.393 
631.062 
633.658 
639.786 
637.925 
643.176 
646.054 
649.603 
652.861 
657.637 
661.672 
663.824 
667.797 
675.643 
668.978 
678.63 
684.019 
686.297 
689.734 
691.92 
694.735 
698.348 
702.35 
708.799 
715.324 
720.855 
