ITEM: TIMESTEP
1240000
ITEM: NUMBER OF CELLS
100
ITEM: BOX BOUNDS ss pp pp
0 0.001
0 1e-05
-0.5 0.5
ITEM: CELLS f_temp1[*] 
347.629 
355.606 
362.634 
369.106 
373.313 
379.2 
383.817 
388.106 
392.764 
397.408 
402.592 
406.785 
410.962 
413.57 
418.332 
423.247 
428.293 
431.043 
434.445 
438.133 
442.537 
446.775 
450.969 
455.148 
458.35 
462.034 
465.709 
470.807 
474.083 
478.148 
481.843 
485.247 
489.208 
492.343 
496.14 
498.66 
501.666 
504.323 
508.632 
512.031 
515.075 
519.91 
522.879 
526.339 
529.456 
532.904 
535.781 
539.876 
542.456 
545.923 
549.656 
553.74 
557.454 
560.799 
561.925 
567.541 
569.689 
572.605 
576.833 
579.401 
582.675 
586.735 
591.053 
593.926 
596.696 
598.971 
601.155 
604.759 
608.287 
611.534 
613.962 
617.611 
621.377 
624.386 
627.229 
631.295 
633.8 
640.877 
636.711 
644.082 
648.234 
652.7 
655.416 
658.394 
661.234 
665.198 
669.372 
673.57 
671.287 
678.834 
680.846 
684.282 
687.161 
690.802 
696.113 
699.341 
703.701 
708.664 
714.333 
721.289 
