ITEM: TIMESTEP
1970000
ITEM: NUMBER OF CELLS
100
ITEM: BOX BOUNDS ss pp pp
0 0.001
0 1e-05
-0.5 0.5
ITEM: CELLS f_temp1[*] 
347.752 
355.62 
361.685 
367.065 
372.248 
377.319 
382.71 
387.813 
392.333 
396.054 
400.129 
404.798 
409.373 
414.046 
417.804 
422.592 
426.35 
431.415 
435.201 
439.211 
443.67 
448.065 
450.662 
454.7 
459.373 
462.57 
465.67 
469.422 
473.577 
476.717 
480.769 
484.405 
488.299 
491.742 
494.234 
496.701 
502.245 
505.064 
508.047 
511.197 
515.184 
518.361 
519.724 
525.121 
529.248 
533.818 
535.595 
539.657 
542.835 
545.675 
548.759 
553.447 
555.53 
558.815 
563.695 
566.527 
569.482 
572.801 
577.114 
578.339 
582.653 
584.729 
587.822 
590.854 
594.162 
597.935 
601.688 
604.366 
607.532 
609.998 
614.098 
616.36 
619.71 
623.537 
625.683 
629.952 
635.048 
639.997 
636.424 
643.541 
646.247 
648.822 
651.502 
654.718 
658.995 
661.337 
667.081 
672.627 
669.968 
677.256 
681.406 
684.435 
689.77 
693.03 
697.033 
699.479 
705.387 
711.047 
715.643 
722.442 
