ITEM: TIMESTEP
640000
ITEM: NUMBER OF CELLS
100
ITEM: BOX BOUNDS ss pp pp
0 0.001
0 1e-05
-0.5 0.5
ITEM: CELLS f_temp1[*] 
347.018 
355.266 
361.092 
366.428 
371.942 
377.177 
382.168 
386.344 
392.307 
395.691 
400.304 
404.417 
409.362 
413.678 
417.779 
422.26 
425.994 
430.246 
433.808 
437.995 
441.939 
445.992 
449.905 
452.909 
457.545 
461.081 
463.587 
467.51 
471.958 
475.345 
479.422 
484.011 
486.419 
490.129 
493.097 
496.455 
500.967 
503.535 
508.224 
511.951 
515.435 
519.242 
522.165 
525.404 
529.036 
532.257 
535.217 
539.044 
541.398 
544.708 
549.15 
552.557 
556.572 
559.882 
562.985 
566.646 
569.591 
570.812 
574.243 
577.648 
581.204 
584.148 
587.605 
590.348 
594.389 
596.756 
602.75 
604.321 
606.364 
609.896 
613.267 
616.971 
619.932 
622.047 
626.438 
631.528 
635.655 
639.741 
638.876 
642.675 
645.64 
649.808 
653.463 
656.702 
660.9 
664.188 
665.929 
673.273 
671.266 
677.466 
680.589 
684.467 
687.05 
692.142 
695.592 
699.723 
705.993 
710.374 
715.248 
723.46 
