ITEM: TIMESTEP
25000
ITEM: NUMBER OF CELLS
100
ITEM: BOX BOUNDS ss pp pp
0 0.001
0 1e-05
-0.5 0.5
ITEM: CELLS f_temp1[*] 
346.723 
355.351 
362.099 
367.69 
372.528 
377.203 
382.825 
388.007 
391.631 
395.833 
400.799 
405.284 
409.202 
414.158 
416.983 
422.859 
427.237 
431.308 
433.469 
437.277 
440.451 
445.238 
449.469 
453.433 
458.27 
461.838 
464.729 
468.74 
473.38 
474.888 
478.651 
483.495 
486.817 
490.648 
493.342 
497.571 
500.639 
507.596 
511.473 
514.005 
517.896 
521.211 
525.629 
527.795 
531.056 
532.76 
536.694 
540.725 
542.526 
545.352 
550.511 
552.008 
555.229 
559.722 
562.146 
566.785 
569.006 
573.416 
575.859 
577.41 
580.52 
584.744 
587.165 
591.071 
594.071 
598.26 
604.04 
606.062 
609.149 
614.3 
616.939 
620.504 
622.575 
626.209 
628.94 
632.824 
636.324 
641.491 
638.979 
644.374 
649.556 
651.135 
656.346 
659.507 
662.928 
662.433 
668.665 
677.655 
673.998 
680.38 
683.125 
683.888 
689.011 
692.683 
695.007 
701.453 
707.062 
710.446 
715.582 
723.212 
