ITEM: TIMESTEP
1220000
ITEM: NUMBER OF CELLS
100
ITEM: BOX BOUNDS ss pp pp
0 0.001
0 1e-05
-0.5 0.5
ITEM: CELLS f_temp1[*] 
347.924 
355.508 
361.176 
368.281 
373.903 
378.924 
383.854 
388.866 
393.951 
398.349 
402.834 
408.09 
411.042 
414.686 
420.009 
423.97 
426.331 
432.649 
435.26 
439.337 
444.146 
448.979 
452.339 
455.265 
458.466 
462.088 
466.117 
470.095 
474.733 
477.89 
480.558 
484.391 
488.297 
493.554 
497.953 
500.811 
503.15 
506.832 
509.227 
515.15 
520.556 
521.839 
525.594 
528.726 
531.944 
534.741 
536.791 
541.111 
543.955 
546.984 
551.181 
552.92 
555.561 
557.99 
560.252 
564.166 
569.199 
571.795 
575.686 
578.789 
583.929 
587.572 
587.475 
592.057 
595.124 
598.606 
602.795 
606.049 
609.036 
612.174 
613.734 
619.629 
623.846 
627.054 
629.28 
631.251 
633.248 
641.11 
637.837 
643.479 
645.817 
650.764 
653.181 
658.827 
660.113 
664.148 
666.794 
675.654 
670.71 
681.47 
682.5 
686.149 
689.249 
692.745 
697.171 
702.414 
705.427 
707.796 
717.785 
720.606 
