ITEM: TIMESTEP
1020000
ITEM: NUMBER OF CELLS
100
ITEM: BOX BOUNDS ss pp pp
0 0.001
0 1e-05
-0.5 0.5
ITEM: CELLS f_temp1[*] 
347.487 
355.29 
361.561 
366.487 
372.173 
376.886 
382.498 
386.89 
392.293 
396.98 
401.475 
405.634 
410.456 
413.74 
418.338 
422.303 
426.19 
430.917 
434.177 
437.527 
441.641 
445.327 
449.921 
452.892 
456.258 
460.797 
464.517 
468.196 
471.174 
474.712 
479.07 
482.698 
485.315 
488.128 
492.374 
495.665 
499.871 
503.207 
506.247 
510.477 
513.823 
518.535 
520.387 
524.785 
526.452 
529.565 
534.038 
537.726 
540.583 
544.193 
546.845 
550.922 
555.127 
556.46 
559.341 
564.083 
566.124 
570.451 
574.614 
578.202 
580.649 
581.602 
585.385 
589.765 
592.77 
596.429 
598.924 
602.502 
604.661 
609.535 
611.072 
615.514 
618.58 
621.582 
623.616 
627.883 
630.958 
637.813 
634.545 
639.026 
642.616 
647.506 
648.321 
654.867 
658.353 
660.843 
663.704 
672.361 
669.014 
675.958 
678.369 
684.4 
688.969 
693.201 
695.287 
699.122 
704.125 
709.09 
716.031 
722.699 
