ITEM: TIMESTEP
2215000
ITEM: NUMBER OF CELLS
100
ITEM: BOX BOUNDS ss pp pp
0 0.001
0 1e-05
-0.5 0.5
ITEM: CELLS f_temp1[*] 
345.317 
353.552 
360.789 
365.671 
370.863 
377.451 
382.814 
387.11 
390.897 
396.106 
401.956 
406.288 
411.02 
413.489 
418.164 
422.849 
426.991 
431.741 
435.964 
440.231 
443.542 
446.375 
450.432 
452.886 
457.428 
461.506 
464.494 
470.161 
473.469 
476.819 
479.115 
484.371 
486.432 
490.024 
492.756 
495.869 
499.7 
504.599 
507.363 
511.568 
516.707 
518.265 
523.011 
527.621 
529.312 
532.908 
534.937 
536.801 
539.74 
542.987 
547.494 
550.814 
553.326 
556.951 
560.59 
564.218 
567.472 
572.18 
573.494 
576.003 
580.151 
584.065 
585.762 
591.375 
591.859 
596.958 
599.474 
604.472 
604.715 
608.781 
612.876 
616.206 
620.435 
622.764 
625.823 
627.584 
630.904 
638.685 
635.217 
643.234 
646.16 
648.804 
650.009 
656.055 
659.619 
662.099 
666.306 
669.449 
669.437 
674.202 
678.996 
681.99 
683.7 
689.122 
694.483 
699.805 
704.264 
708.067 
715.234 
720.706 
