ITEM: TIMESTEP
810000
ITEM: NUMBER OF CELLS
100
ITEM: BOX BOUNDS ss pp pp
0 0.001
0 1e-05
-0.5 0.5
ITEM: CELLS f_temp1[*] 
347.04 
356.267 
362.377 
367.297 
372.674 
379.199 
384.287 
389.118 
393.18 
398.236 
402.821 
406.691 
410.882 
415.242 
419.023 
423.194 
427.527 
430.069 
434.098 
438.126 
441.824 
445.66 
449.263 
453.85 
457.453 
461.739 
465.004 
469.405 
473.064 
477.356 
480.58 
485.438 
488.248 
491.575 
494.845 
496.933 
500.351 
504.605 
507.976 
510.431 
514.274 
517.735 
521.479 
524.5 
528.367 
531.469 
534.988 
537.68 
539.663 
543.806 
548.195 
550.593 
555.393 
560.042 
560.86 
563.863 
566.415 
570.685 
575.106 
578.65 
582.064 
584.568 
588.134 
591.639 
594.624 
597.764 
602.364 
604.947 
607.284 
610.598 
614.072 
617.19 
619.555 
623.597 
626.075 
628.937 
631.937 
638.961 
634.653 
641.623 
644.498 
649.072 
651.457 
654.554 
660.075 
662.627 
665.862 
672.462 
670.406 
677.18 
681.42 
683.975 
688.198 
692.62 
696.884 
700.652 
705.45 
711.177 
716.929 
724.088 
