ITEM: TIMESTEP
2680000
ITEM: NUMBER OF CELLS
100
ITEM: BOX BOUNDS ss pp pp
0 0.001
0 1e-05
-0.5 0.5
ITEM: CELLS f_temp1[*] 
346.922 
355.241 
360.758 
366.659 
371.685 
377.638 
382.828 
387.683 
392.403 
396.202 
399.698 
404.549 
409.35 
413.393 
417.449 
422.004 
426.893 
430.595 
434.347 
438.11 
441.9 
446.292 
449.269 
453.789 
457.734 
461.425 
465.225 
468.984 
472.42 
475.544 
477.881 
483.33 
486.771 
491.036 
493.87 
497.7 
500.595 
504.029 
506.177 
509.665 
512.951 
515.282 
518.849 
522.083 
525.1 
529.475 
534.281 
536.006 
540.514 
544.52 
546.436 
549.728 
554.148 
556.658 
561.063 
563.632 
566.497 
569.294 
572.03 
575.516 
578.931 
582.021 
583.952 
587.359 
591.149 
595.175 
598.769 
601.941 
605.419 
609.549 
613.014 
616.094 
619.64 
623.879 
625.374 
628.107 
631.63 
637.817 
635.131 
642.227 
646.442 
648.622 
652.266 
655.173 
658.625 
662.188 
666.296 
671.435 
668.745 
675.683 
679.539 
683.829 
686.942 
692.229 
695.392 
698.647 
703.775 
709.607 
715.02 
719.806 
