ITEM: TIMESTEP
1710000
ITEM: NUMBER OF CELLS
100
ITEM: BOX BOUNDS ss pp pp
0 0.001
0 1e-05
-0.5 0.5
ITEM: CELLS f_temp1[*] 
346.877 
354.902 
363.018 
368.185 
373.408 
378.063 
382.723 
387.459 
392.294 
397.378 
401.302 
406.273 
410.136 
413.654 
418.837 
422.55 
426.61 
429.764 
433.436 
437.691 
441.396 
445.331 
450.197 
454.159 
459.265 
463.76 
467.907 
471.217 
473.362 
475.983 
480.297 
482.2 
486.308 
489.206 
495.488 
498.886 
501.668 
505.46 
508.499 
513.227 
515.376 
519.82 
524.859 
526.432 
527.794 
532.044 
535.901 
539.272 
543.826 
547.325 
549.837 
552.834 
555.98 
558.291 
563.493 
566.401 
567.836 
572.455 
574.467 
576.932 
580.757 
580.962 
585.853 
588.793 
593.876 
596.103 
600.126 
602.273 
606.236 
610.071 
611.935 
614.513 
619.148 
621.908 
624.123 
626.809 
630.403 
637.726 
634.352 
641.642 
645.912 
647.907 
652.227 
655.601 
657.821 
661.368 
664.473 
673.467 
666.776 
675.921 
679.741 
683.538 
688.084 
693.051 
696.731 
699.587 
702.405 
707.956 
711.893 
717.572 
