ITEM: TIMESTEP
3950000
ITEM: NUMBER OF CELLS
100
ITEM: BOX BOUNDS ss pp pp
0 0.001
0 1e-05
-0.5 0.5
ITEM: CELLS f_temp1[*] 
346.358 
354.546 
361.513 
367.703 
373.202 
378.025 
382.939 
387.869 
392.542 
397.417 
401.55 
405.637 
409.255 
412.344 
417.328 
421.777 
425.417 
430.239 
434.511 
437.288 
441.434 
445.222 
449.615 
453.581 
456.326 
460.834 
464.778 
468.025 
472.48 
475.425 
478.936 
483.325 
486.409 
489.483 
494.187 
497.216 
500.42 
504.529 
508.069 
511.768 
516.046 
519.714 
523.136 
525.087 
528.588 
532.402 
536.162 
539.766 
543.247 
547.371 
550.347 
553.682 
557.75 
560.017 
563.498 
565.461 
568.985 
572.126 
576.797 
578.856 
580.851 
584.049 
585.677 
589.712 
593.288 
594.879 
599.693 
602.834 
607.165 
610.324 
612.634 
615.944 
618.042 
622.47 
626.999 
629.32 
633.793 
637.559 
636.586 
641.392 
646.262 
648.04 
651.918 
655.619 
659.104 
662.284 
666.382 
671.821 
670.237 
676.319 
680.354 
684.418 
689.589 
692.758 
696.492 
702.582 
704.464 
709.232 
713.373 
719.825 
