ITEM: TIMESTEP
875000
ITEM: NUMBER OF CELLS
100
ITEM: BOX BOUNDS ss pp pp
0 0.001
0 1e-05
-0.5 0.5
ITEM: CELLS f_temp1[*] 
346.802 
354.962 
361.506 
366.475 
372.245 
377.542 
382.392 
387.208 
392.021 
398.032 
400.745 
405.808 
410.15 
414.255 
417.269 
420.742 
426.339 
431.415 
435.489 
438.824 
442.443 
445.025 
450.22 
453.476 
457.084 
459.922 
464.93 
469.809 
474.146 
477.412 
481.438 
484.689 
487.742 
491.59 
495.555 
498.115 
500.132 
505.835 
508.469 
511.272 
514.788 
516.849 
521.602 
524.444 
528.096 
530.687 
532.998 
537.669 
540.564 
544.509 
548.435 
552.601 
553.22 
557.049 
561.698 
563.237 
565.441 
571.48 
574.606 
578.923 
581.546 
583.872 
586.982 
590.678 
591.972 
596.073 
596.713 
601.721 
603.862 
608.695 
611.862 
613.236 
616.088 
619.243 
622.278 
624.623 
626.321 
634.245 
631.546 
639.86 
643.332 
646.119 
646.705 
651.671 
656.225 
660.739 
663.972 
670.713 
666.674 
676.562 
679.421 
683.242 
686.439 
690.872 
694.174 
699.246 
703.448 
708.466 
714.556 
721.587 
