ITEM: TIMESTEP
3030000
ITEM: NUMBER OF CELLS
100
ITEM: BOX BOUNDS ss pp pp
0 0.001
0 1e-05
-0.5 0.5
ITEM: CELLS f_temp1[*] 
346.808 
354.972 
360.58 
366.469 
372.255 
378.109 
382.984 
388.139 
393.359 
397.096 
401.13 
406.435 
410.151 
414.871 
418.51 
422.661 
425.319 
430.688 
433.81 
438.602 
441.537 
445.839 
449.704 
453.936 
457.73 
460.59 
465.507 
469.157 
472.935 
476.499 
480.589 
483.72 
489.192 
492.065 
495.72 
497.025 
501.743 
505.882 
508.817 
512.724 
515.331 
519.183 
521.591 
525.926 
528.444 
531.543 
534.637 
538.2 
540.587 
543.708 
547.659 
551.48 
555.645 
558.797 
561.028 
565.243 
568.055 
571.039 
573.834 
577.43 
580.994 
582.818 
588.069 
590.835 
594.341 
597.1 
600.19 
603.876 
606.63 
609.566 
613.061 
615.422 
619.57 
624.777 
626.038 
629.557 
633.956 
640.186 
636.945 
642.082 
647.565 
648.972 
651.507 
654.672 
659.12 
663.038 
666.027 
671.182 
669.07 
674.093 
679.251 
683.241 
687.761 
690.686 
695.841 
700.51 
705.625 
710.884 
715.676 
721.777 
