ITEM: TIMESTEP
3220000
ITEM: NUMBER OF CELLS
100
ITEM: BOX BOUNDS ss pp pp
0 0.001
0 1e-05
-0.5 0.5
ITEM: CELLS f_temp1[*] 
348.058 
356.077 
361.734 
367.453 
373.95 
379.379 
383.74 
388.94 
393.745 
398.639 
403.581 
407.075 
411.749 
416.968 
420.975 
425.447 
429.137 
432.564 
435.523 
439.343 
442.741 
447.169 
452.352 
456.237 
459.231 
463.802 
467.978 
470.467 
473.345 
477.428 
480.841 
483.233 
486.682 
490.624 
493.708 
497.309 
503.082 
505.401 
509.409 
512.374 
516.477 
519.262 
523.697 
526.474 
530.622 
532.477 
536.193 
538.946 
543.18 
546.933 
551.345 
554.036 
557.934 
560.657 
563.975 
567.075 
569.839 
573.588 
575.731 
580.744 
582.706 
586.62 
588.146 
590.913 
594.941 
597.342 
602.52 
605.072 
609.138 
611.907 
614.906 
617.946 
621.344 
624.367 
627.679 
632.655 
633.747 
639.248 
636.937 
643.489 
647.399 
650.926 
654.243 
657.104 
661.3 
665.089 
667.769 
672.606 
670.41 
676.445 
681.199 
682.644 
688.528 
692.408 
696.982 
700.78 
705.337 
709.135 
714.218 
721.44 
