ITEM: TIMESTEP
1340000
ITEM: NUMBER OF CELLS
100
ITEM: BOX BOUNDS ss pp pp
0 0.001
0 1e-05
-0.5 0.5
ITEM: CELLS f_temp1[*] 
346.562 
355.021 
362.189 
368.102 
373.214 
378.591 
382.816 
387.533 
392.985 
397.167 
402.488 
405.947 
409.665 
414.64 
419.786 
423.646 
427.002 
431.17 
434.84 
438.553 
442.372 
446.19 
450.668 
453.534 
457.412 
461.198 
465.089 
468.811 
471.807 
474.199 
478.559 
481.154 
485.946 
489.792 
494.479 
496.133 
501.402 
505.729 
508.528 
511.536 
513.972 
518.366 
520.962 
525.362 
528.718 
532.144 
536.035 
539.603 
542.236 
545.569 
549.477 
553.068 
554.898 
556.765 
560.385 
563.941 
566.657 
569.192 
572.622 
575.6 
579.793 
584.19 
587.433 
590.072 
593.453 
597.174 
599.395 
603.975 
607.65 
609.9 
612.111 
615.443 
620.091 
623.926 
627.848 
629.324 
633.229 
637.755 
635.328 
640.493 
643.962 
646.757 
651.242 
653.326 
657.235 
662.415 
667.235 
673.249 
669.109 
676.158 
680.519 
683.01 
687.561 
693.349 
699.476 
702.821 
707.138 
708.886 
714.923 
721.828 
