ITEM: TIMESTEP
920000
ITEM: NUMBER OF CELLS
100
ITEM: BOX BOUNDS ss pp pp
0 0.001
0 1e-05
-0.5 0.5
ITEM: CELLS f_temp1[*] 
346.652 
355.339 
361.05 
367.478 
371.008 
376.576 
380.953 
385.046 
390.171 
393.894 
399.103 
402.907 
407.248 
411.821 
415.883 
421.017 
424.692 
427.842 
432.127 
437.545 
440.928 
443.431 
446.763 
452.324 
455.094 
460.128 
463.393 
466.94 
471.298 
474.026 
475.748 
479.953 
483.455 
488.082 
491.707 
494.947 
499.087 
504.186 
508.094 
510.332 
515.226 
517.57 
521.696 
524.875 
528.388 
532.721 
535.69 
539.062 
541.807 
546.526 
549.155 
553.232 
556.183 
560.205 
561.661 
565.016 
567.871 
571.59 
575.913 
579.567 
583.076 
584.731 
588.339 
591.478 
593.349 
595.942 
598.666 
602.1 
605.086 
609.017 
613.19 
616.46 
620.391 
624.417 
628.935 
629.768 
634.77 
640.232 
635.108 
641.782 
646.074 
649.89 
653.694 
653.971 
657.064 
662.157 
666.666 
672.24 
670.311 
676.87 
679.915 
683.443 
690.057 
692.758 
696.468 
701.887 
704.948 
708.735 
715.564 
721.065 
