ITEM: TIMESTEP
4980000
ITEM: NUMBER OF CELLS
100
ITEM: BOX BOUNDS ss pp pp
0 0.001
0 1e-05
-0.5 0.5
ITEM: CELLS f_temp1[*] 
346.885 
354.617 
360.573 
366.635 
371.149 
377.046 
381.498 
387.424 
392.021 
396.486 
401.173 
405.221 
409.918 
414.591 
418.921 
422.359 
426.127 
430.04 
435.2 
439.014 
442.263 
446.373 
449.724 
452.376 
454.772 
458.943 
464.474 
467.962 
471.955 
475.625 
479.516 
482.912 
485.833 
490.671 
494.3 
497.226 
500.175 
503.67 
508.236 
512.164 
514.977 
517.399 
521.607 
523.814 
527.269 
530.331 
533.92 
537.556 
541.152 
544.354 
547.183 
551.517 
554.512 
557.704 
562.76 
566.063 
569.848 
571.9 
575.032 
577.287 
581.074 
583.754 
588.524 
592.13 
594.146 
597.862 
601.784 
604.932 
607.553 
610.488 
614.9 
616.176 
619.747 
623.571 
626.705 
630.419 
634.136 
638.63 
636.57 
642.451 
646.448 
650.148 
652.22 
655.388 
658.18 
662.942 
666.657 
676.613 
671.21 
677.93 
683.471 
687.988 
690.182 
693.032 
698.333 
702.48 
707.67 
711.332 
716.722 
722.07 
