ITEM: TIMESTEP
2025000
ITEM: NUMBER OF CELLS
100
ITEM: BOX BOUNDS ss pp pp
0 0.001
0 1e-05
-0.5 0.5
ITEM: CELLS f_temp1[*] 
347.153 
354.492 
361.597 
367.217 
373.011 
378.302 
382.305 
387.563 
393.033 
398.659 
402.395 
406.552 
411.761 
417.146 
419.541 
423.583 
426.613 
430.102 
435.227 
440.32 
443.177 
446.565 
449.493 
453.482 
457.372 
460.443 
462.763 
466.908 
470.68 
475.155 
478.001 
481.077 
485.717 
489.18 
492.676 
497.286 
500.784 
503.864 
508.235 
512.395 
515.701 
519.099 
521.1 
525.829 
529.016 
531.127 
534.18 
537.026 
540.833 
543.531 
547.755 
551.382 
554.622 
558.722 
561.41 
565.146 
569.562 
572.099 
577.31 
579.671 
583.838 
586.417 
588.378 
590.871 
594.824 
600.231 
602.894 
604.947 
605.356 
611.352 
616.329 
617.535 
617.653 
621.464 
625.996 
628.928 
633.149 
638.69 
637.193 
642.883 
646.934 
651.481 
654.866 
655.9 
658.759 
661.269 
665.536 
671.611 
671.458 
675.53 
679.238 
680.897 
685.587 
690.432 
693.698 
700.336 
703.199 
707.331 
712.829 
719.198 
