ITEM: TIMESTEP
2450000
ITEM: NUMBER OF CELLS
100
ITEM: BOX BOUNDS ss pp pp
0 0.001
0 1e-05
-0.5 0.5
ITEM: CELLS f_temp1[*] 
345.742 
353.676 
360.726 
367.341 
372.159 
377.337 
382.237 
387.226 
391.681 
396.963 
400.52 
404.797 
408.619 
412.446 
417.222 
421.317 
425.83 
430.192 
434.188 
437.705 
441.97 
445.071 
449.156 
453.777 
457.756 
461.191 
464.978 
469.605 
471.893 
475.819 
478.935 
483.854 
486.565 
490.311 
492.984 
497.026 
500.746 
504.392 
507.678 
511.897 
515.141 
519.189 
521.153 
524.978 
528.782 
531.743 
536.2 
538.52 
542.898 
547.183 
552.503 
554.331 
557.438 
559.426 
562.63 
565.53 
568.94 
572.693 
575.739 
579.04 
582.772 
584.417 
586.971 
592.311 
595.609 
598.589 
601.327 
604.365 
607.415 
609.09 
614.031 
616.291 
620.637 
621.703 
625.736 
630.252 
633.169 
641.453 
637.91 
644.288 
648.043 
649.873 
652.708 
656.069 
660.023 
663.041 
667.2 
675.202 
670.787 
678.589 
682.04 
685.117 
687.202 
692.239 
697.068 
701.116 
705.764 
711.076 
717.947 
723.308 
