ITEM: TIMESTEP
3510000
ITEM: NUMBER OF CELLS
100
ITEM: BOX BOUNDS ss pp pp
0 0.001
0 1e-05
-0.5 0.5
ITEM: CELLS f_temp1[*] 
346.803 
355.335 
361.756 
367.054 
372.448 
377.788 
383.05 
386.822 
391.849 
396.523 
401.46 
404.814 
408.753 
413.549 
418.38 
422.015 
425.463 
429.302 
432.7 
437.853 
442.327 
445.568 
449.963 
454.352 
457.745 
460.966 
465.254 
469.157 
474.207 
477.191 
480.172 
483.943 
486.516 
490.489 
493.026 
497.019 
499.932 
502.006 
506.993 
510.891 
514.403 
517.861 
521.708 
524.371 
528.316 
531.475 
534.843 
537.356 
542.161 
544.875 
549.505 
552.403 
555.08 
559.79 
562.747 
565.445 
569.676 
572.186 
574.831 
578.772 
582.759 
585.698 
588.141 
591.727 
594.29 
599.258 
601.103 
605.18 
608.726 
610.477 
614.376 
617.011 
619.479 
624.064 
625.412 
628.343 
634.15 
639.142 
635.281 
641.409 
645.452 
650.027 
654.331 
656.917 
658.425 
663.987 
667.185 
673.588 
670.101 
676.653 
679.363 
682.056 
688.145 
691.686 
695.512 
700.642 
706.928 
710.001 
716.28 
721.904 
