ITEM: TIMESTEP
1960000
ITEM: NUMBER OF CELLS
100
ITEM: BOX BOUNDS ss pp pp
0 0.001
0 1e-05
-0.5 0.5
ITEM: CELLS f_temp1[*] 
347.087 
355.634 
362.238 
367.512 
373.061 
378.842 
383.424 
388.013 
393.197 
397.154 
401.506 
405.735 
409.171 
413.666 
417.051 
421.149 
425.609 
430.336 
434.53 
437.176 
441.183 
444.283 
449.265 
453.927 
457.538 
460.401 
464.864 
468.228 
471.684 
475.593 
479.279 
483.166 
486.863 
490.019 
493.373 
497.183 
500.16 
504.744 
507.293 
510.726 
515.033 
518.254 
522.211 
525.048 
527.73 
530.906 
534.883 
538.949 
541.43 
545.446 
549.331 
554.187 
556.594 
560.127 
563.58 
567.169 
569.345 
571.717 
574.221 
576.973 
581.113 
584.063 
588.361 
590.416 
593.854 
597.967 
601.045 
603.706 
607.521 
610.006 
614.008 
617.314 
621.107 
624.241 
625.735 
629.271 
632.374 
640.6 
636.055 
643.843 
647.452 
650.849 
654.584 
656.586 
658.71 
664.648 
666.45 
672.931 
669.172 
675.332 
679.394 
683.959 
687.34 
689.599 
694.199 
699.78 
705.295 
710.788 
714.145 
720.624 
