ITEM: TIMESTEP
1690000
ITEM: NUMBER OF CELLS
100
ITEM: BOX BOUNDS ss pp pp
0 0.001
0 1e-05
-0.5 0.5
ITEM: CELLS f_temp1[*] 
346.122 
353.94 
360.887 
366.354 
371.152 
376.337 
381.193 
387.077 
391.251 
396.296 
399.927 
405.017 
410.06 
414.09 
417.019 
422.464 
426.139 
429.562 
433.674 
437.371 
441.838 
445.952 
449.678 
453.417 
457.085 
461.009 
465.155 
468.765 
472.186 
476.269 
480.715 
483.879 
487.631 
489.843 
491.959 
495.198 
500.137 
503.494 
506.745 
511.346 
515.166 
518.204 
522.095 
526.573 
528.717 
531.837 
534.826 
539.276 
543.027 
545.92 
548.734 
552.434 
555.413 
558.973 
562.15 
566.299 
569.392 
571.897 
574.874 
577.759 
581.162 
584.655 
589.193 
592.657 
595.208 
599.423 
602.042 
605.436 
609.027 
611.038 
615.182 
616.251 
620.787 
623.184 
626.531 
630.053 
633.475 
638.644 
634.63 
644.266 
646.089 
649.211 
654.408 
657.596 
660.286 
663.74 
666.549 
672.869 
668.185 
677.069 
680.701 
683.766 
688.505 
692.523 
696.675 
698.923 
705.208 
711.483 
715.663 
723.833 
