ITEM: TIMESTEP
250000
ITEM: NUMBER OF CELLS
100
ITEM: BOX BOUNDS ss pp pp
0 0.001
0 1e-05
-0.5 0.5
ITEM: CELLS f_temp1[*] 
346.832 
355.089 
361.121 
367.195 
372.113 
376.702 
381.514 
387.752 
392.48 
396.982 
401.297 
406.774 
410.215 
414.725 
420.124 
423.544 
427.499 
432.891 
437.286 
441.306 
443.039 
447.274 
451.068 
454.939 
457.442 
462.541 
466.066 
469.695 
472.914 
477.375 
480.648 
484.643 
488.906 
492.653 
495.417 
497.734 
502.896 
504.878 
508.599 
513.113 
514.534 
518.837 
522.392 
526.207 
531.201 
534.769 
538.523 
542.951 
547.045 
551.672 
552.482 
556.053 
558.836 
560.394 
566.416 
571.008 
571.13 
573.666 
575.907 
579.804 
584.085 
588.048 
588.033 
590.443 
593.83 
598.202 
599.583 
602.75 
607.178 
610.798 
616.439 
619.759 
621.003 
624.516 
626.394 
632.323 
633.473 
642.452 
639.543 
644.338 
647.006 
650.725 
656.746 
659.69 
663.961 
664.766 
669.013 
674.648 
668.821 
677.07 
680.246 
685.209 
687.259 
692.032 
695.185 
702.148 
705.361 
709.576 
713.512 
722.844 
