ITEM: TIMESTEP
1140000
ITEM: NUMBER OF CELLS
100
ITEM: BOX BOUNDS ss pp pp
0 0.001
0 1e-05
-0.5 0.5
ITEM: CELLS f_temp1[*] 
348.071 
356.28 
363.105 
368.519 
373.156 
378.644 
383.509 
390.006 
394.842 
399.193 
403.896 
408.134 
412.571 
416.381 
422.089 
425.643 
430.224 
434.052 
438.002 
439.919 
443.338 
447.354 
450.739 
455.499 
457.824 
462.619 
466.266 
470.141 
473.924 
477.531 
480.764 
485.284 
487.491 
490.996 
495.581 
500.191 
503.855 
506.725 
510.497 
514.694 
516.541 
520.154 
522.562 
526.443 
529.982 
535.07 
536.892 
540.042 
543.398 
547.644 
550.577 
553.679 
557.239 
560.379 
563.158 
568.447 
570.379 
574.233 
579.461 
580.699 
586.62 
587.823 
592.641 
596.563 
596.269 
600.316 
601.582 
604.575 
610.303 
610.973 
616.053 
619.855 
621.143 
624.722 
629.126 
631.05 
635.147 
642.725 
636.282 
644.227 
646.816 
653.063 
654.35 
658.554 
664.474 
667.907 
671.555 
675.497 
672.357 
679.336 
681.949 
685.832 
689.265 
691.2 
694.915 
699.43 
703.454 
709.679 
712.784 
720.156 
