ITEM: TIMESTEP
1170000
ITEM: NUMBER OF CELLS
100
ITEM: BOX BOUNDS ss pp pp
0 0.001
0 1e-05
-0.5 0.5
ITEM: CELLS f_temp1[*] 
345.848 
353.308 
360.308 
366.444 
371.71 
376.566 
381.775 
386.1 
390.744 
395.785 
400.067 
403.413 
408.02 
412.728 
417.034 
421.414 
425.065 
429.221 
433.517 
437.099 
441.451 
445.065 
449.32 
453.151 
457.451 
460.755 
464.837 
468.203 
471.614 
476.041 
478.331 
481.931 
485.223 
489.392 
493.114 
496.479 
499.725 
502.619 
506.118 
510.453 
513.045 
517.011 
520.518 
524.236 
527.901 
532.598 
534.467 
537.966 
542.772 
546.045 
548.566 
552.522 
555.596 
558.44 
560.845 
563.622 
567.798 
570.717 
574.15 
577.313 
580.343 
582.934 
586.45 
589.031 
593.881 
596.634 
600.498 
604.101 
607.228 
610.337 
613.45 
616.495 
621.603 
623.361 
626.506 
628.268 
633.021 
638.867 
635.74 
642.098 
644.903 
648.987 
651.584 
654.439 
658.205 
661.042 
665.799 
674.125 
668.575 
677.624 
679.699 
682.915 
688.879 
690.319 
694.024 
698.92 
705.902 
709.716 
716.07 
722.106 
