ITEM: TIMESTEP
3640000
ITEM: NUMBER OF CELLS
100
ITEM: BOX BOUNDS ss pp pp
0 0.001
0 1e-05
-0.5 0.5
ITEM: CELLS f_temp1[*] 
346.619 
354.455 
361.873 
367.562 
372.12 
377.938 
383.424 
387.61 
391.97 
396.695 
400.389 
405.812 
409.767 
413.541 
417.381 
421.361 
425.76 
429.675 
434.435 
437.721 
441.854 
445.096 
449.008 
452.736 
456.062 
460.041 
463.492 
467.385 
471.632 
475.741 
478.792 
482.151 
486.765 
489.304 
492.009 
496.309 
499.584 
503.133 
506.929 
509.628 
512.907 
516.762 
520.506 
523.557 
527.969 
531.155 
535.085 
539.068 
540.81 
544.445 
548.216 
551.678 
555.045 
557.923 
560.701 
563.567 
568.269 
571.786 
574.645 
577.4 
582.228 
584.439 
588.633 
592.514 
595.535 
597.931 
600.429 
603.269 
604.395 
609.184 
611.435 
614.702 
618.064 
621.82 
626.407 
629.421 
633.217 
640.177 
636.149 
643.748 
648.261 
650.186 
652.199 
655.652 
658.671 
662.289 
666.423 
673.152 
669.639 
675.814 
681.332 
681.996 
688.125 
692.718 
699.218 
700.988 
705.466 
710.142 
713.778 
722.008 
