ITEM: TIMESTEP
950000
ITEM: NUMBER OF CELLS
100
ITEM: BOX BOUNDS ss pp pp
0 0.001
0 1e-05
-0.5 0.5
ITEM: CELLS f_temp1[*] 
347.569 
355.269 
361.508 
367.741 
373.46 
377.698 
383.711 
388.005 
392.452 
397.515 
402.009 
405.777 
409.618 
413.824 
418.097 
422.288 
427.148 
431.381 
435.714 
439.155 
443.456 
446.934 
451.448 
455.515 
459.136 
462.442 
467.205 
470.536 
473.754 
476.226 
480.489 
483.624 
487.604 
490.543 
494.751 
498.489 
502.702 
505.727 
508.524 
512.472 
515.759 
520.022 
521.755 
525.167 
528.663 
532.731 
534.821 
538.081 
542.13 
546.317 
548.16 
551.184 
554.602 
557.007 
562.124 
566.235 
568.884 
572.265 
575.796 
578.57 
581.311 
583.863 
587.61 
592.613 
594.782 
598.126 
601.632 
604.612 
607.724 
611.631 
613.636 
616.827 
618.967 
622.066 
625.875 
628.865 
631.892 
639.788 
635.126 
643.587 
645.219 
649.238 
652.198 
654.744 
660.104 
664.165 
668.024 
674.835 
670.59 
679.048 
680.814 
685.68 
690.734 
694.46 
698.218 
702.833 
707.879 
712.127 
718.04 
723.474 
