ITEM: TIMESTEP
1230000
ITEM: NUMBER OF CELLS
100
ITEM: BOX BOUNDS ss pp pp
0 0.001
0 1e-05
-0.5 0.5
ITEM: CELLS f_temp1[*] 
347.154 
355.291 
361.292 
368.119 
372.181 
376.935 
382.511 
387.195 
391.414 
396.377 
401.952 
404.856 
409.087 
413.761 
417.774 
422.038 
426.594 
431.121 
434.085 
438.526 
442.947 
447.48 
451.412 
455.448 
459.141 
462.256 
464.716 
468.888 
472.153 
474.936 
477.529 
481.579 
484.769 
488.138 
492.235 
495.975 
500.329 
503.51 
506.963 
511.189 
515.177 
518.094 
521.196 
524.055 
526.927 
531.029 
534.329 
537.803 
541.801 
545.538 
548.22 
552.974 
554.651 
558.902 
562.274 
565.964 
569.598 
572.658 
576.128 
579.092 
581.817 
584.838 
587.627 
591.44 
594.877 
599.192 
601.889 
603.806 
606.452 
609.617 
612.171 
616.112 
617.972 
621.6 
626.707 
629.46 
634.57 
640.309 
635.918 
643.148 
646.534 
649.643 
653.74 
656.874 
660.795 
664.754 
666.436 
674.066 
670.199 
676.324 
680.071 
683.354 
688.043 
691.437 
694.443 
699.1 
703.134 
708.003 
714.632 
720.14 
