ITEM: TIMESTEP
2220000
ITEM: NUMBER OF CELLS
100
ITEM: BOX BOUNDS ss pp pp
0 0.001
0 1e-05
-0.5 0.5
ITEM: CELLS f_temp1[*] 
346.427 
354.663 
361.692 
369.241 
375.93 
380.471 
385.598 
391.159 
394.42 
398.727 
404.206 
407.787 
410.518 
414.979 
420.173 
423.409 
427.543 
431.83 
434.684 
437.7 
442.966 
446.501 
450.223 
454.045 
457.633 
460.999 
463.741 
469.266 
471.898 
476.361 
481.608 
486.444 
489.738 
492.544 
495.931 
499.508 
503.391 
506.135 
509.864 
513.133 
516.725 
520.609 
524.832 
527.526 
531.213 
534.282 
540.035 
542.594 
542.412 
548.721 
550.712 
554.467 
557.904 
560.857 
566.671 
569.559 
572.737 
575.768 
578.485 
580.502 
586.021 
588.904 
592.388 
595.289 
599.301 
601.645 
606.332 
609.405 
611.386 
615.562 
617.874 
622.682 
627.069 
628.973 
632.903 
635.499 
637.915 
644.765 
640.401 
648.082 
649.628 
655.432 
659.306 
663.142 
664.99 
667.315 
673.861 
677.574 
676.282 
682.699 
684.691 
687.188 
692.047 
695.338 
701.642 
706.108 
709.271 
713.98 
716.048 
722.373 
