ITEM: TIMESTEP
720000
ITEM: NUMBER OF CELLS
100
ITEM: BOX BOUNDS ss pp pp
0 0.001
0 1e-05
-0.5 0.5
ITEM: CELLS f_temp1[*] 
346.823 
355.099 
362.064 
367.049 
372.565 
378.283 
383.149 
388.464 
392.947 
397.68 
402.659 
407.086 
410.922 
415.026 
418.733 
423.856 
428.744 
432.146 
435.394 
439.436 
444.115 
447.652 
452.462 
456.062 
459.521 
463.044 
467.208 
470.217 
473.985 
478.28 
481.877 
485.627 
489.234 
492.921 
496.506 
499.538 
502.926 
507.16 
509.49 
512.649 
517.036 
518.814 
522.254 
525.792 
530.702 
534.572 
537.878 
540.935 
544.195 
548.042 
550.476 
553.315 
557.188 
560.79 
563.116 
567.215 
570.413 
573.047 
575.757 
579.475 
582.632 
587.684 
590.306 
591.649 
595.244 
598.613 
601.431 
603.948 
606.839 
609.614 
612.639 
617.158 
619.474 
622.08 
627.257 
629.953 
632.378 
637.561 
635.816 
642.729 
645.092 
647.872 
652.413 
656.572 
660.419 
664.279 
667.789 
673.397 
669.881 
678.675 
681.708 
683.955 
687.408 
692.951 
697.068 
702.837 
705.788 
710.65 
714.068 
721.489 
