ITEM: TIMESTEP
930000
ITEM: NUMBER OF CELLS
100
ITEM: BOX BOUNDS ss pp pp
0 0.001
0 1e-05
-0.5 0.5
ITEM: CELLS f_temp1[*] 
347.052 
355.142 
361.021 
366.514 
372.564 
377.531 
381.848 
387.287 
391.529 
396.522 
401.287 
405.671 
409.585 
412.752 
416.978 
420.425 
424.854 
428.08 
432.833 
436.353 
440.193 
445.095 
448.41 
453.675 
458.065 
460.964 
464.047 
468.286 
471.071 
474.187 
478.942 
482.071 
485.369 
488.882 
491.026 
495.45 
497.459 
501.215 
505.169 
508.436 
512.626 
514.457 
518.612 
522.043 
526.654 
529.499 
532.296 
535.841 
539.48 
542.68 
546.576 
548.172 
552.537 
555.58 
558.919 
561.506 
564.366 
567.84 
571.32 
574.606 
578.337 
581.357 
585.225 
587.436 
589.631 
592.248 
595.044 
599.321 
602.267 
606.12 
609.858 
612.958 
616.088 
619.289 
622.219 
626.212 
632.202 
636.815 
633.902 
638.731 
642.118 
645.836 
647.777 
651.82 
656.579 
660.097 
664.71 
671.111 
668.473 
677.264 
680.905 
684.645 
688.157 
692.499 
696.239 
700.898 
706.322 
710.597 
716.622 
722.955 
