ITEM: TIMESTEP
2250000
ITEM: NUMBER OF CELLS
100
ITEM: BOX BOUNDS ss pp pp
0 0.001
0 1e-05
-0.5 0.5
ITEM: CELLS f_temp1[*] 
348.23 
355.565 
361.341 
367.093 
371.568 
377.337 
381.966 
387.509 
391.035 
396.159 
401.183 
404.75 
409.802 
413.659 
417.754 
421.703 
426.126 
430.933 
433.702 
439.083 
441.356 
446.124 
450.351 
453.318 
456.44 
460.938 
464.825 
468.974 
472.13 
475.045 
479.216 
481.92 
486.041 
490.44 
493.057 
495.804 
500.443 
504.052 
507.444 
512.421 
516.294 
518.31 
521.45 
524.591 
527.524 
530.506 
535.454 
538.389 
541.509 
545.204 
548.16 
552.23 
556.621 
559.993 
561.935 
564.787 
568.559 
571.661 
575.617 
577.467 
580.317 
584.649 
586.159 
590.44 
594.351 
596.843 
601.11 
603.955 
607.915 
609.357 
614.684 
619.123 
622.585 
624.244 
627.539 
630.915 
633.091 
641.628 
637.331 
644.488 
647.915 
650.201 
654.349 
655.172 
658.078 
661.952 
664.838 
672.599 
669.152 
676.354 
682.075 
684.318 
688.564 
693.228 
697.766 
701.867 
705.039 
708.479 
715.193 
721.926 
