ITEM: TIMESTEP
2420000
ITEM: NUMBER OF CELLS
100
ITEM: BOX BOUNDS ss pp pp
0 0.001
0 1e-05
-0.5 0.5
ITEM: CELLS f_temp1[*] 
346.7 
354.947 
361.092 
367.297 
373.19 
378.461 
382.556 
387.6 
392.006 
395.962 
400.647 
404.818 
409.072 
413.392 
418.315 
421.789 
426.128 
429.926 
433.532 
437.662 
441.056 
446.013 
449.498 
453.015 
456.277 
461.98 
464.351 
468.312 
471.967 
475.25 
479.411 
482.89 
485.691 
489.24 
493.849 
497.517 
501.256 
504.235 
509.039 
512.801 
516.231 
518.262 
522.311 
525.644 
529.036 
532.748 
535.94 
540.421 
543.646 
546.645 
549.761 
552.231 
554.7 
559.092 
561.793 
564.928 
568.454 
571.973 
576.243 
579.839 
583.131 
587.255 
589.906 
593.44 
597.074 
599.694 
600.3 
603.873 
606.911 
610.276 
615.662 
617.937 
623.296 
624.588 
628.491 
631.1 
634.288 
640.805 
637.193 
643.839 
646.791 
650.656 
653.443 
657.34 
661.007 
665.57 
670.519 
677.111 
672.132 
679.753 
684.443 
687.699 
690.03 
694.164 
698.689 
702.687 
706.486 
710.366 
717.511 
723.84 
