ITEM: TIMESTEP
1510000
ITEM: NUMBER OF CELLS
100
ITEM: BOX BOUNDS ss pp pp
0 0.001
0 1e-05
-0.5 0.5
ITEM: CELLS f_temp1[*] 
346.173 
353.963 
360.121 
365.319 
370.508 
376.019 
381.874 
385.683 
391.015 
395.91 
399.995 
405.693 
410.045 
414.317 
418.333 
421.522 
424.63 
430.043 
434.026 
438.859 
442.432 
446.375 
450.536 
453.905 
457.726 
461.687 
463.056 
467.027 
472.352 
475.423 
479.777 
483.836 
487.476 
490.793 
493.671 
496.448 
500.744 
503.098 
507.301 
510.29 
512.869 
517.314 
520.429 
523.821 
527.517 
530.542 
534.988 
538.517 
541.954 
544.442 
547.965 
551.299 
552.864 
556.249 
560.653 
564.597 
568.057 
571.216 
575.433 
579.108 
581.763 
582.847 
587.218 
590.516 
595.403 
596.647 
599.724 
604.347 
607.952 
610.014 
613.555 
617.406 
620.644 
623.9 
627.206 
630.627 
633.166 
639.45 
637.118 
643.511 
646.805 
648.286 
654.919 
656.079 
660.398 
663.483 
665.689 
673.539 
671.592 
675.971 
681.271 
685.052 
687.925 
693.56 
695.803 
701.645 
707.301 
709.745 
716.563 
722.103 
