ITEM: TIMESTEP
700
ITEM: NUMBER OF CELLS
400
ITEM: BOX BOUNDS oo rr pp
0 10
0 10
-0.5 0.5
ITEM: CELLS c_dens[1] 
2.3348e-26 
2.0681e-26 
2.3746e-26 
2.6212e-26 
2.4531e-26 
2.2701e-26 
2.4756e-26 
2.2909e-26 
2.2991e-26 
2.0216e-26 
2.4265e-26 
2.37929e-26 
2.1018e-26 
2.5446e-26 
2.0854e-26 
2.3882e-26 
2.3789e-26 
2.1903e-26 
2.0936e-26 
2.213e-26 
2.6969e-26 
2.2357e-26 
2.3136e-26 
2.1864e-26 
2.1598e-26 
2.4308e-26 
2.4661e-26 
2.197e-26 
2.4914e-26 
1.9954e-26 
2.4183e-26 
2.0603e-26 
2.0469e-26 
2.5273e-26 
0 
2.5392e-26 
2.5286e-26 
2.705e-26 
2.5474e-26 
2.6757e-26 
0 
2.6798e-26 
2.4438e-26 
2.6614e-26 
2.6389e-26 
2.48136e-26 
2.4717e-26 
1.6135e-26 
2.5898e-26 
2.27367e-26 
2.6041e-26 
0 
2.3882e-26 
2.5431e-26 
0 
2.234e-26 
2.6104e-26 
2.7687e-26 
2.3495e-26 
2.6869e-26 
2.32956e-26 
2.3216e-26 
0 
2.77363e-26 
2.9426e-26 
0 
2.6335e-26 
1.6753e-26 
0 
0 
1.4715e-26 
0 
0 
1.8135e-26 
2.15251e-26 
0 
1.7832e-26 
1.75168e-26 
0 
1.6424e-26 
1.34979e-26 
0 
1.8349e-26 
2.4105e-26 
0 
2.075e-26 
2.0153e-26 
0 
0 
1.7075e-26 
1.9595e-26 
0 
0 
1.6515e-26 
1.6039e-26 
0 
0 
1.9954e-26 
0 
0 
2.4678e-26 
2.43862e-26 
2.4637e-26 
2.55369e-26 
0 
2.4427e-26 
2.36444e-26 
0 
2.5658e-26 
0 
2.523e-26 
2.87227e-26 
2.4741e-26 
2.5939e-26 
0 
2.6588e-26 
2.611e-26 
2.5552e-26 
2.9467e-26 
2.4343e-26 
2.4042e-26 
2.96331e-26 
2.3588e-26 
2.4901e-26 
2.6547e-26 
0 
2.3841e-26 
2.53427e-26 
2.7709e-26 
0 
2.7382e-26 
2.40247e-26 
2.4994e-26 
2.696e-26 
2.2461e-26 
2.5738e-26 
2.0841e-26 
2.4501e-26 
2.3655e-26 
2.2935e-26 
2.274e-26 
2.4412e-26 
2.2816e-26 
2.1066e-26 
1.8416e-26 
2.2539e-26 
2.0123e-26 
2.2859e-26 
2.0019e-26 
2.3298e-26 
2.2247e-26 
2.1109e-26 
2.2407e-26 
1.876e-26 
2.2485e-26 
2.2766e-26 
2.1066e-26 
2.3811e-26 
2.2169e-26 
2.0988e-26 
2.019e-26 
2.1916e-26 
2.3958e-26 
1.9234e-26 
2.3082e-26 
2.4689e-26 
1.9954e-26 
0 
0 
1.7553e-26 
1.7523e-26 
0 
0 
1.8652e-26 
0 
0 
1.5868e-26 
0 
0 
2.0049e-26 
2.1438e-26 
0 
0 
1.8191e-26 
1.8929e-26 
0 
2.24106e-26 
1.7393e-26 
0 
1.8656e-26 
1.669e-26 
0 
1.75168e-26 
1.8479e-26 
0 
2.25974e-26 
1.6305e-26 
0 
0 
1.8717e-26 
1.6186e-26 
7.934e-27 
2.37245e-26 
1.2005e-26 
9.922e-27 
1.1263e-26 
8.823e-27 
9.924e-27 
1.1581e-26 
8.185e-27 
5.678e-27 
1.1914e-26 
7.071e-27 
7.683e-27 
1.1291e-26 
6.366e-27 
1.0123e-26 
1.4873e-26 
6.567e-27 
9.05319e-27 
9.991e-27 
6.753e-27 
1.04314e-26 
9.593e-27 
7.60316e-27 
1.3279e-26 
9.924e-27 
1.4434e-26 
7.017e-27 
1.1901e-26 
6.474e-27 
1.0841e-26 
6.13e-27 
6.591e-27 
0 
0 
0 
0 
0 
0 
0 
2.82388e-27 
0 
0 
0 
3.0441e-27 
0 
0 
0 
3.143e-27 
0 
6.77e-28 
6.10009e-27 
0 
5.07012e-27 
0 
0 
4.737e-27 
0 
1.287e-27 
0 
0 
0 
0 
0 
1.95716e-27 
0 
7.96e-27 
4.815e-27 
2.442e-27 
4.776e-27 
5.691e-27 
3.05e-27 
4.43e-27 
4.125e-27 
4.616e-27 
6.753e-27 
5.81e-27 
3.543e-27 
5.213e-27 
6.554e-27 
3.848e-27 
1.698e-27 
5.107e-27 
4.988e-27 
3.238e-27 
2.336e-27 
4.923e-27 
6.342e-27 
5.055e-27 
2.946e-27 
8.371e-27 
4.789e-27 
2.76e-27 
5.89e-27 
4.776e-27 
2.52e-27 
2.959e-27 
4.804e-27 
4.35e-27 
0 
0 
0 
0 
0 
0 
0 
0 
1.41498e-27 
0 
0 
1.778e-27 
0 
0 
6.24586e-27 
0 
0 
0 
5.22076e-27 
0 
0 
0 
5.068e-27 
0 
1.101e-27 
0 
4.603e-27 
0 
0 
4.90817e-27 
0 
0 
3.60271e-27 
2.91402e-27 
8.038e-27 
1.6398e-26 
8.306e-27 
6.505e-27 
1.1157e-26 
7.867e-27 
7.90415e-27 
1.0456e-26 
8.347e-27 
1.56e-26 
1.0469e-26 
4.538e-27 
1.2498e-26 
6.768e-27 
6.143e-27 
1.1929e-26 
7.123e-27 
1.0679e-26 
1.3478e-26 
8.187e-27 
1.5282e-26 
1.0666e-26 
6.314e-27 
1.3307e-26 
1.0958e-26 
7.058e-27 
1.3028e-26 
9.286e-27 
1.0428e-26 
9.24322e-27 
6.169e-27 
1.21e-26 
9.578e-27 
3.355e-27 
3.887e-27 
5.267e-27 
2.92e-28 
3.383e-27 
6.647e-27 
2.057e-27 
3.954e-27 
6.301e-27 
6.647e-27 
3.29e-27 
4.218e-27 
5.28e-27 
6.684e-27 
3.052e-27 
3.768e-27 
4.151e-27 
6.474e-27 
2.44e-27 
4.975e-27 
7.006e-27 
2.812e-27 
4.272e-27 
5.561e-27 
3.145e-27 
3.502e-27 
4.629e-27 
1.899e-27 
5.332e-27 
7.828e-27 
2.773e-27 
3.74e-27 
5.864e-27 
