ITEM: TIMESTEP
1000
ITEM: NUMBER OF CELLS
400
ITEM: BOX BOUNDS oo rr pp
0 10
0 10
-0.5 0.5
ITEM: CELLS c_dens[1] 
2.4719e-26 
2.4559e-26 
2.2751e-26 
2.3841e-26 
2.3837e-26 
2.0086e-26 
2.3707e-26 
2.4198e-26 
2.486e-26 
2.0391e-26 
2.4449e-26 
1.87358e-26 
2.4224e-26 
2.1929e-26 
2.3125e-26 
2.5431e-26 
2.168e-26 
2.0735e-26 
2.3112e-26 
2.5697e-26 
2.2104e-26 
2.1252e-26 
2.282e-26 
2.1782e-26 
2.5563e-26 
2.3746e-26 
2.1529e-26 
2.4438e-26 
1.974e-26 
1.9863e-26 
2.5669e-26 
1.9846e-26 
2.6454e-26 
2.5152e-26 
0 
2.4174e-26 
2.4914e-26 
2.99458e-26 
2.3627e-26 
2.8258e-26 
0 
2.8286e-26 
2.5814e-26 
2.9463e-26 
2.5284e-26 
2.70347e-26 
2.6454e-26 
6.11209e-26 
2.5206e-26 
2.3269e-26 
2.635e-26 
0 
2.4237e-26 
2.5643e-26 
0 
2.2909e-26 
2.7529e-26 
2.2117e-26 
2.672e-26 
3.05207e-26 
2.34631e-26 
2.7131e-26 
0 
1.92702e-26 
2.5152e-26 
0 
2.5366e-26 
1.9688e-26 
0 
0 
1.8027e-26 
0 
0 
1.9489e-26 
2.38735e-26 
0 
1.6759e-26 
1.86765e-26 
0 
1.5522e-26 
1.96834e-26 
0 
1.9422e-26 
2.1916e-26 
0 
2.0854e-26 
2.1055e-26 
0 
0 
1.7365e-26 
1.9108e-26 
0 
0 
1.6452e-26 
1.7233e-26 
0 
0 
1.9e-26 
0 
0 
2.5766e-26 
2.54882e-26 
2.5898e-26 
2.91931e-26 
0 
2.579e-26 
3.15221e-26 
0 
2.4611e-26 
0 
2.6941e-26 
2.62661e-26 
2.4983e-26 
2.555e-26 
0 
2.5126e-26 
2.462e-26 
2.563e-26 
2.9493e-26 
2.5312e-26 
2.8647e-26 
3.14179e-26 
2.5074e-26 
2.5963e-26 
2.5418e-26 
0 
2.4239e-26 
2.52213e-26 
2.4265e-26 
0 
2.5033e-26 
2.27632e-26 
2.839e-26 
2.5381e-26 
2.6865e-26 
2.2619e-26 
2.1799e-26 
2.4384e-26 
2.2502e-26 
2.6253e-26 
2.1914e-26 
2.2898e-26 
2.3934e-26 
2.3605e-26 
2.1014e-26 
2.5072e-26 
2.3484e-26 
2.523e-26 
2.0123e-26 
2.3391e-26 
2.6069e-26 
2.218e-26 
2.4862e-26 
2.2576e-26 
2.247e-26 
2.2392e-26 
2.4291e-26 
2.1243e-26 
2.4782e-26 
2.2513e-26 
2.38e-26 
2.6216e-26 
2.2327e-26 
1.8985e-26 
2.571e-26 
2.5541e-26 
1.9171e-26 
0 
0 
1.6106e-26 
1.754e-26 
0 
0 
1.9199e-26 
0 
0 
1.7791e-26 
0 
0 
1.9065e-26 
2.0149e-26 
0 
0 
1.6409e-26 
1.7075e-26 
0 
2.23992e-26 
2.1823e-26 
0 
2.10965e-26 
2.1533e-26 
0 
1.84231e-26 
1.6115e-26 
0 
3.57379e-26 
1.6647e-26 
0 
0 
1.8362e-26 
1.4581e-26 
8.373e-27 
8.02729e-27 
1.3251e-26 
1.0058e-26 
1.0134e-26 
9.788e-27 
9.234e-27 
1.6824e-26 
8.782e-27 
8.797e-27 
1.4356e-26 
5.466e-27 
8.927e-27 
1.1157e-26 
5.944e-27 
9.604e-27 
1.0813e-26 
8.092e-27 
1.11825e-26 
1.1473e-26 
6.608e-27 
1.35572e-26 
9.87e-27 
9.24419e-27 
1.6288e-26 
7.828e-27 
1.6249e-26 
8.423e-27 
1.3212e-26 
7.11e-27 
1.1912e-26 
6.022e-27 
5.559e-27 
0 
0 
0 
0 
0 
0 
0 
1.56322e-27 
0 
0 
0 
3.39799e-27 
0 
0 
0 
3.065e-27 
0 
3.98e-28 
3.56586e-27 
0 
5.63671e-27 
0 
0 
6.104e-27 
0 
7.96e-28 
0 
0 
0 
0 
0 
1.27277e-27 
0 
7.006e-27 
6.818e-27 
2.652e-27 
7.506e-27 
5.998e-27 
2.122e-27 
5.717e-27 
5.892e-27 
3.9e-27 
5.306e-27 
3.887e-27 
4.443e-27 
6.381e-27 
5.758e-27 
3.727e-27 
2.163e-27 
5.533e-27 
5.546e-27 
3.264e-27 
2.946e-27 
5.027e-27 
4.75e-27 
3.781e-27 
3.794e-27 
6.102e-27 
3.98e-27 
3.21e-27 
5.823e-27 
5.427e-27 
3.556e-27 
4.391e-27 
4.471e-27 
2.892e-27 
0 
0 
0 
0 
0 
0 
0 
0 
2.14558e-27 
0 
0 
2.561e-27 
0 
0 
4.46293e-27 
0 
0 
0 
6.26401e-27 
0 
0 
0 
4.523e-27 
0 
1.592e-27 
0 
5.36e-27 
0 
0 
2.89672e-27 
0 
0 
3.63152e-27 
5.11328e-27 
9.433e-27 
1.5905e-26 
9.141e-27 
7.56584e-27 
1.2139e-26 
6.409e-27 
8.76693e-27 
9.42e-27 
6.608e-27 
1.2416e-26 
1.08e-26 
7.058e-27 
1.2749e-26 
8.743e-27 
5.918e-27 
1.2935e-26 
6.764e-27 
9.911e-27 
1.2669e-26 
8.49e-27 
1.6316e-26 
1.2455e-26 
1.0372e-26 
1.3132e-26 
1.149e-26 
5.611e-27 
1.3039e-26 
8.466e-27 
9.247e-27 
1.14359e-26 
8.384e-27 
1.1981e-26 
8.503e-27 
4.22e-27 
4.058e-27 
4.735e-27 
3.18e-28 
3.037e-27 
7.363e-27 
2.587e-27 
4.603e-27 
6.673e-27 
7.603e-27 
3.541e-27 
3.251e-27 
4.765e-27 
5.492e-27 
3.556e-27 
4.192e-27 
5.055e-27 
5.215e-27 
2.693e-27 
4.311e-27 
5.758e-27 
1.977e-27 
5.598e-27 
6.009e-27 
3.796e-27 
4.685e-27 
4.391e-27 
2.52e-27 
3.688e-27 
5.533e-27 
3.794e-27 
4.272e-27 
6.461e-27 
