ITEM: TIMESTEP
900
ITEM: NUMBER OF CELLS
400
ITEM: BOX BOUNDS oo rr pp
0 10
0 10
-0.5 0.5
ITEM: CELLS c_dens[1] 
2.3616e-26 
2.3415e-26 
2.2554e-26 
2.5256e-26 
2.6e-26 
2.2089e-26 
2.4308e-26 
2.4546e-26 
2.1728e-26 
2.2868e-26 
2.2727e-26 
2.49319e-26 
2.2619e-26 
2.6826e-26 
2.2284e-26 
2.5418e-26 
2.0878e-26 
2.0017e-26 
2.4209e-26 
2.4092e-26 
2.5381e-26 
2.1159e-26 
2.2186e-26 
2.3049e-26 
2.2327e-26 
2.5061e-26 
2.2686e-26 
2.3668e-26 
2.0244e-26 
1.7659e-26 
2.3205e-26 
2.2327e-26 
2.5747e-26 
2.5353e-26 
0 
2.5972e-26 
2.5857e-26 
3.00649e-26 
2.6127e-26 
2.5617e-26 
0 
2.6677e-26 
2.51e-26 
2.7133e-26 
2.274e-26 
2.59844e-26 
2.4728e-26 
3.11115e-26 
2.4103e-26 
3.53769e-26 
2.6545e-26 
0 
2.5152e-26 
2.7607e-26 
0 
2.3945e-26 
2.7505e-26 
2.4836e-26 
2.4942e-26 
2.65555e-26 
2.44288e-26 
2.1133e-26 
0 
1.94889e-26 
2.704e-26 
0 
2.8113e-26 
1.7099e-26 
0 
0 
1.486e-26 
0 
0 
1.9556e-26 
2.00658e-26 
0 
1.7735e-26 
2.05524e-26 
0 
1.5018e-26 
1.67693e-26 
0 
1.8228e-26 
2.0322e-26 
0 
2.2647e-26 
1.8641e-26 
0 
0 
1.8135e-26 
1.7633e-26 
0 
0 
1.7674e-26 
1.7127e-26 
0 
0 
1.7404e-26 
0 
0 
2.6333e-26 
2.17583e-26 
2.5842e-26 
2.74596e-26 
0 
2.8061e-26 
3.17406e-26 
0 
2.9809e-26 
0 
2.5712e-26 
2.49471e-26 
2.555e-26 
2.5803e-26 
0 
2.5407e-26 
2.5249e-26 
2.3389e-26 
2.6664e-26 
2.327e-26 
2.7661e-26 
3.02072e-26 
2.372e-26 
2.672e-26 
2.8533e-26 
0 
2.5825e-26 
2.66389e-26 
2.3311e-26 
0 
2.6811e-26 
2.49106e-26 
2.6945e-26 
2.6214e-26 
2.5364e-26 
2.4678e-26 
2.2225e-26 
2.4966e-26 
2.2959e-26 
2.5539e-26 
2.2571e-26 
2.3411e-26 
2.3352e-26 
2.3361e-26 
2.0657e-26 
2.3871e-26 
2.0854e-26 
2.2515e-26 
2.0683e-26 
2.4557e-26 
2.1834e-26 
2.5394e-26 
2.5139e-26 
2.2645e-26 
2.6292e-26 
2.3584e-26 
2.3867e-26 
2.0419e-26 
2.1877e-26 
2.3828e-26 
1.9874e-26 
2.3272e-26 
2.3789e-26 
2.1464e-26 
2.2048e-26 
1.9238e-26 
2.3588e-26 
0 
0 
1.7884e-26 
1.502e-26 
0 
0 
1.7512e-26 
0 
0 
1.5511e-26 
0 
0 
1.8972e-26 
1.7951e-26 
0 
0 
1.9781e-26 
1.7947e-26 
0 
2.36723e-26 
2.0337e-26 
0 
1.78821e-26 
2.0536e-26 
0 
2.06255e-26 
1.6238e-26 
0 
1.6412e-26 
1.6688e-26 
0 
0 
1.9186e-26 
1.552e-26 
1.0255e-26 
1.12987e-26 
1.1966e-26 
1.0175e-26 
9.87e-27 
9.275e-27 
8.89e-27 
1.3493e-26 
8.52e-27 
1.0467e-26 
1.2589e-26 
7.324e-27 
7.205e-27 
1.2299e-26 
6.446e-27 
9.141e-27 
1.1821e-26 
7.045e-27 
1.04126e-26 
1.2338e-26 
6.898e-27 
6.55458e-27 
1.0071e-26 
6.89191e-27 
1.523e-26 
8.544e-27 
1.3082e-26 
6.753e-27 
1.364e-26 
9.459e-27 
1.2721e-26 
7.43e-27 
5.267e-27 
0 
0 
0 
0 
0 
0 
0 
5.19952e-27 
0 
0 
0 
4.31255e-27 
0 
0 
0 
3.119e-27 
0 
4.78e-28 
5.50578e-27 
0 
4.95095e-27 
0 
0 
5.652e-27 
0 
8.76e-28 
0 
0 
0 
0 
0 
1.39187e-27 
0 
7.614e-27 
4.908e-27 
2.959e-27 
7.467e-27 
5.308e-27 
3.091e-27 
5.427e-27 
5.68e-27 
3.768e-27 
5.864e-27 
4.869e-27 
3.011e-27 
5.533e-27 
4.789e-27 
4.43e-27 
2.057e-27 
6.939e-27 
5.957e-27 
4.551e-27 
3.833e-27 
4.975e-27 
5.838e-27 
4.843e-27 
3.21e-27 
6.035e-27 
4.365e-27 
2.189e-27 
5.241e-27 
4.854e-27 
2.375e-27 
5.598e-27 
4.895e-27 
2.998e-27 
0 
0 
0 
0 
0 
0 
0 
0 
1.95716e-27 
0 
0 
2.693e-27 
0 
0 
7.14293e-27 
0 
0 
0 
6.48773e-27 
0 
5.11332e-28 
0 
5.027e-27 
0 
1.817e-27 
0 
5.319e-27 
0 
0 
5.19952e-27 
0 
0 
3.40005e-27 
2.03981e-26 
6.846e-27 
1.7378e-26 
8.397e-27 
1.00063e-26 
1.316e-26 
6.913e-27 
7.1393e-27 
9.511e-27 
6.433e-27 
1.43e-26 
9.976e-27 
5.706e-27 
1.3426e-26 
7.616e-27 
5.812e-27 
1.0947e-26 
6.807e-27 
9.178e-27 
1.3584e-26 
8.332e-27 
1.5896e-26 
1.2018e-26 
8.862e-27 
1.2314e-26 
9.472e-27 
7.311e-27 
1.0694e-26 
7.415e-27 
1.1648e-26 
1.33215e-26 
6.409e-27 
1.1211e-26 
9.18e-27 
4.763e-27 
4.802e-27 
4.365e-27 
4.91e-28 
4.259e-27 
6.288e-27 
1.579e-27 
3.807e-27 
4.231e-27 
6.327e-27 
3.675e-27 
3.437e-27 
4.763e-27 
6.102e-27 
3.926e-27 
3.143e-27 
5.717e-27 
7.086e-27 
2.959e-27 
5.574e-27 
6.712e-27 
3.29e-27 
4.936e-27 
6.169e-27 
5.042e-27 
5.213e-27 
3.928e-27 
2.494e-27 
5.016e-27 
6.539e-27 
2.838e-27 
5.412e-27 
5.36e-27 
