ITEM: TIMESTEP
550
ITEM: NUMBER OF CELLS
400
ITEM: BOX BOUNDS oo rr pp
0 10
0 10
-0.5 0.5
ITEM: CELLS c_dens[1] 
2.3668e-26 
2.1546e-26 
2.1516e-26 
2.4676e-26 
2.1371e-26 
1.9943e-26 
2.4423e-26 
2.1836e-26 
2.0817e-26 
2.1838e-26 
2.361e-26 
2.14313e-26 
2.2141e-26 
2.3534e-26 
1.9061e-26 
2.5433e-26 
2.393e-26 
1.8535e-26 
2.5037e-26 
2.2366e-26 
2.3322e-26 
2.2617e-26 
1.9902e-26 
1.9251e-26 
2.3666e-26 
2.0523e-26 
2.1131e-26 
2.4012e-26 
2.1507e-26 
1.9409e-26 
2.4163e-26 
2.3216e-26 
2.412e-26 
2.4425e-26 
0 
2.7285e-26 
2.4211e-26 
2.71691e-26 
2.4228e-26 
2.3058e-26 
0 
2.4955e-26 
2.4213e-26 
2.7107e-26 
2.2608e-26 
2.57817e-26 
2.5485e-26 
2.58556e-26 
2.5604e-26 
2.95947e-26 
2.3164e-26 
0 
2.3716e-26 
2.7222e-26 
0 
2.5139e-26 
2.6874e-26 
2.4094e-26 
2.518e-26 
3.01975e-26 
2.27582e-26 
2.5037e-26 
0 
2.1126e-26 
2.4916e-26 
0 
2.3696e-26 
1.8256e-26 
0 
0 
1.4142e-26 
0 
0 
1.9182e-26 
1.9832e-26 
0 
1.9115e-26 
1.79066e-26 
0 
1.6316e-26 
1.60546e-26 
0 
1.8598e-26 
2.0629e-26 
0 
1.961e-26 
1.5974e-26 
0 
0 
1.7765e-26 
1.8001e-26 
0 
0 
1.5602e-26 
1.5879e-26 
0 
0 
1.8135e-26 
0 
0 
2.5987e-26 
2.81162e-26 
2.3272e-26 
2.46069e-26 
0 
2.3772e-26 
3.46373e-26 
0 
2.6281e-26 
0 
2.4289e-26 
2.61772e-26 
2.0404e-26 
2.4438e-26 
0 
2.0828e-26 
2.839e-26 
2.4648e-26 
2.6681e-26 
2.6523e-26 
2.507e-26 
3.35887e-26 
2.473e-26 
2.4096e-26 
2.6281e-26 
0 
2.4345e-26 
2.33293e-26 
2.571e-26 
0 
2.7211e-26 
1.83003e-26 
2.8565e-26 
2.4183e-26 
2.3452e-26 
2.1905e-26 
1.9448e-26 
2.6147e-26 
2.2418e-26 
2.5251e-26 
2.2327e-26 
2.2195e-26 
2.2487e-26 
2.324e-26 
2.0681e-26 
2.3441e-26 
2.133e-26 
2.1265e-26 
1.879e-26 
2.2798e-26 
2.0142e-26 
2.0071e-26 
2.3257e-26 
2.0008e-26 
2.3361e-26 
2.1574e-26 
2.1505e-26 
2.2487e-26 
2.1663e-26 
2.1239e-26 
2.176e-26 
2.6039e-26 
2.1068e-26 
2.0746e-26 
2.2275e-26 
2.0737e-26 
2.0761e-26 
0 
0 
1.8628e-26 
1.5706e-26 
0 
0 
1.7298e-26 
0 
0 
1.6331e-26 
0 
0 
1.7698e-26 
2.0162e-26 
0 
0 
1.7551e-26 
1.8358e-26 
0 
2.37774e-26 
1.982e-26 
0 
2.13799e-26 
1.86e-26 
0 
2.29448e-26 
1.7694e-26 
0 
1.56972e-26 
1.8217e-26 
0 
0 
1.966e-26 
1.2645e-26 
9.141e-27 
1.89686e-26 
1.1568e-26 
1.0376e-26 
9.79e-27 
9.457e-27 
7.058e-27 
1.4661e-26 
7.296e-27 
9.751e-27 
1.202e-26 
7.88e-27 
7.469e-27 
1.1464e-26 
6.102e-27 
8.464e-27 
1.3677e-26 
6.924e-27 
1.47443e-26 
1.271e-26 
6.593e-27 
8.62315e-27 
9.565e-27 
7.52276e-27 
1.5935e-26 
9.604e-27 
1.3305e-26 
6.102e-27 
1.2948e-26 
7.59e-27 
1.1977e-26 
5.228e-27 
3.647e-27 
0 
1.85719e-27 
0 
0 
0 
0 
0 
3.34495e-27 
0 
0 
0 
2.34763e-27 
0 
0 
0 
3.781e-27 
0 
8.76e-28 
4.31716e-27 
0 
5.42986e-27 
0 
0 
5.107e-27 
0 
1.685e-27 
0 
0 
0 
0 
0 
1.36877e-27 
0 
8.356e-27 
5.187e-27 
2.096e-27 
5.849e-27 
5.083e-27 
3.065e-27 
5.572e-27 
4.378e-27 
3.543e-27 
3.344e-27 
4.657e-27 
3.98e-27 
6.872e-27 
5.916e-27 
3.37e-27 
2.003e-27 
5.425e-27 
3.874e-27 
4.59e-27 
2.654e-27 
4.763e-27 
4.791e-27 
4.406e-27 
2.76e-27 
6.234e-27 
5.159e-27 
2.401e-27 
4.378e-27 
4.51e-27 
3.277e-27 
6.048e-27 
3.277e-27 
2.905e-27 
0 
0 
0 
0 
0 
0 
0 
0 
1.76873e-27 
0 
0 
2.468e-27 
0 
0 
3.79573e-27 
0 
0 
0 
4.38436e-27 
0 
0 
0 
4.127e-27 
0 
1.685e-27 
0 
3.463e-27 
0 
0 
5.50208e-27 
0 
0 
3.00192e-27 
2.55664e-27 
9.208e-27 
1.1492e-26 
1.0201e-26 
6.20569e-27 
1.1492e-26 
6.448e-27 
5.6498e-27 
9.074e-27 
6.978e-27 
1.4341e-26 
1.0426e-26 
6.552e-27 
1.1304e-26 
6.978e-27 
5.254e-27 
1.0123e-26 
6.394e-27 
9.764e-27 
1.4635e-26 
7.668e-27 
1.3054e-26 
1.3809e-26 
7.281e-27 
1.194e-26 
1.1555e-26 
5.786e-27 
1.2498e-26 
9.141e-27 
8.728e-27 
9.11653e-27 
6.781e-27 
1.2963e-26 
6.606e-27 
2.827e-27 
4.869e-27 
4.207e-27 
1.99e-28 
2.535e-27 
4.776e-27 
1.354e-27 
2.944e-27 
5.572e-27 
6.647e-27 
3.595e-27 
4.192e-27 
4.936e-27 
5.148e-27 
3.357e-27 
3.569e-27 
4.35e-27 
5.003e-27 
2.254e-27 
4.683e-27 
5.282e-27 
2.667e-27 
4.603e-27 
4.618e-27 
3.768e-27 
5.983e-27 
6.011e-27 
1.778e-27 
4.272e-27 
4.869e-27 
2.613e-27 
4.071e-27 
6.435e-27 
