ITEM: TIMESTEP
200
ITEM: NUMBER OF CELLS
400
ITEM: BOX BOUNDS oo rr pp
0 10
0 10
-0.5 0.5
ITEM: CELLS c_dens[1] 
1.8585e-26 
1.7218e-26 
2.1771e-26 
1.9303e-26 
1.6028e-26 
1.6651e-26 
1.7899e-26 
1.7419e-26 
1.7934e-26 
1.5587e-26 
1.8892e-26 
1.79843e-26 
1.778e-26 
1.982e-26 
1.8855e-26 
1.6753e-26 
1.7196e-26 
1.4806e-26 
1.9915e-26 
1.8027e-26 
2.0657e-26 
1.5524e-26 
1.7566e-26 
1.73e-26 
1.9539e-26 
1.6835e-26 
1.7298e-26 
2.096e-26 
1.8799e-26 
1.7168e-26 
1.791e-26 
1.9526e-26 
2.0283e-26 
1.8202e-26 
0 
2.0945e-26 
1.8295e-26 
2.28779e-26 
2.0281e-26 
1.8189e-26 
0 
2.1827e-26 
2.1903e-26 
2.3843e-26 
1.8403e-26 
1.8779e-26 
1.9199e-26 
2.54882e-26 
2.0603e-26 
3.03959e-26 
2.0789e-26 
0 
1.6387e-26 
1.8879e-26 
0 
2.1118e-26 
2.2186e-26 
1.7564e-26 
2.1276e-26 
2.50215e-26 
1.98038e-26 
2.0231e-26 
0 
1.74761e-26 
1.9753e-26 
0 
2.0032e-26 
1.4235e-26 
0 
0 
1.2392e-26 
0 
0 
1.3441e-26 
1.45915e-26 
0 
1.3225e-26 
1.51244e-26 
0 
1.2656e-26 
1.6412e-26 
0 
1.5405e-26 
1.6279e-26 
0 
1.534e-26 
1.539e-26 
0 
0 
1.2565e-26 
1.3545e-26 
0 
0 
1.1648e-26 
1.3309e-26 
0 
0 
1.4739e-26 
0 
0 
2.3378e-26 
2.21256e-26 
2.2565e-26 
2.42952e-26 
0 
2.0192e-26 
2.17786e-26 
0 
2.1663e-26 
0 
2.1081e-26 
2.58928e-26 
2.1332e-26 
2.1319e-26 
0 
2.0869e-26 
2.1704e-26 
2.1624e-26 
2.3097e-26 
1.91e-26 
2.2169e-26 
2.62323e-26 
1.8602e-26 
2.1557e-26 
1.8442e-26 
0 
1.9288e-26 
1.7479e-26 
2.2738e-26 
0 
1.8003e-26 
1.7706e-26 
2.3348e-26 
1.9318e-26 
1.8585e-26 
1.8029e-26 
1.486e-26 
1.7181e-26 
1.6863e-26 
1.9608e-26 
1.6664e-26 
1.9485e-26 
1.5905e-26 
1.8453e-26 
1.6095e-26 
1.9011e-26 
1.5738e-26 
1.7672e-26 
1.478e-26 
1.8667e-26 
1.6798e-26 
1.7103e-26 
1.7194e-26 
1.8029e-26 
1.8762e-26 
1.703e-26 
1.9528e-26 
1.836e-26 
1.8613e-26 
2.0962e-26 
1.7274e-26 
1.831e-26 
1.4884e-26 
1.7962e-26 
1.7776e-26 
1.6716e-26 
1.5786e-26 
0 
0 
1.0536e-26 
1.3601e-26 
0 
0 
1.1834e-26 
0 
0 
1.2628e-26 
0 
0 
1.3729e-26 
1.4514e-26 
0 
0 
1.2868e-26 
1.316e-26 
0 
1.85554e-26 
1.6424e-26 
0 
1.52503e-26 
1.5178e-26 
0 
1.05393e-26 
1.1025e-26 
0 
2.91402e-27 
1.239e-26 
0 
0 
1.5256e-26 
1.1499e-26 
5.533e-27 
2.91402e-27 
7.932e-27 
5.557e-27 
7.125e-27 
4.244e-27 
5.187e-27 
1.1689e-26 
4.06e-27 
4.179e-27 
9.022e-27 
3.675e-27 
4.975e-27 
7.402e-27 
3.171e-27 
6.554e-27 
9.604e-27 
3.9e-27 
5.1649e-27 
8.849e-27 
3.993e-27 
6.76888e-27 
6.195e-27 
4.00877e-27 
9.182e-27 
6.195e-27 
8.996e-27 
3.329e-27 
9.288e-27 
4.683e-27 
7.96e-27 
3.29e-27 
2.215e-27 
0 
0 
0 
0 
0 
0 
0 
1.18782e-27 
0 
0 
0 
1.01024e-27 
0 
0 
0 
2.096e-27 
0 
0 
2.68e-27 
0 
2.16183e-27 
0 
0 
2.786e-27 
0 
3.72e-28 
0 
0 
0 
0 
0 
0 
0 
3.556e-27 
2.693e-27 
1.367e-27 
2.375e-27 
2.972e-27 
9.28e-28 
2.615e-27 
2.388e-27 
7.83e-28 
3.623e-27 
1.938e-27 
1.114e-27 
2.866e-27 
2.228e-27 
1.287e-27 
5.04e-28 
2.587e-27 
2.388e-27 
1.447e-27 
7.7e-28 
2.667e-27 
2.628e-27 
1.432e-27 
1.884e-27 
3.662e-27 
2.256e-27 
6.64e-28 
2.827e-27 
1.91e-27 
9.02e-28 
3.039e-27 
1.845e-27 
1.075e-27 
0 
0 
0 
0 
0 
0 
0 
0 
5.19064e-28 
0 
0 
5.71e-28 
0 
0 
2.15858e-27 
0 
0 
0 
1.89427e-27 
0 
0 
0 
1.778e-27 
0 
2.92e-28 
0 
1.99e-27 
0 
0 
3.41779e-27 
0 
0 
1.29726e-27 
2.55664e-27 
5.148e-27 
1.1302e-26 
6.169e-27 
4.43997e-27 
8.345e-27 
4.008e-27 
3.93764e-27 
6.647e-27 
3.463e-27 
1.3335e-26 
5.252e-27 
3.344e-27 
7.694e-27 
5.73e-27 
2.07e-27 
6.898e-27 
4.605e-27 
5.73e-27 
1.1304e-26 
6.13e-27 
1.0945e-26 
6.978e-27 
4.272e-27 
1.1741e-26 
7.8e-27 
3.344e-27 
7.043e-27 
5.652e-27 
7.841e-27 
7.94712e-27 
4.75e-27 
8.834e-27 
4.644e-27 
1.646e-27 
1.38e-27 
2.282e-27 
0 
1.434e-27 
3.065e-27 
4.78e-28 
1.194e-27 
3.727e-27 
3.967e-27 
7.16e-28 
1.657e-27 
2.468e-27 
2.189e-27 
1.021e-27 
1.566e-27 
1.512e-27 
2.693e-27 
1.075e-27 
1.765e-27 
3.132e-27 
8.09e-28 
1.897e-27 
2.468e-27 
5.97e-28 
1.91e-27 
2.574e-27 
5.04e-28 
1.566e-27 
2.587e-27 
7.03e-28 
2.639e-27 
1.685e-27 
