ITEM: TIMESTEP
600
ITEM: NUMBER OF CELLS
400
ITEM: BOX BOUNDS oo rr pp
0 10
0 10
-0.5 0.5
ITEM: CELLS c_dens[1] 
2.2621e-26 
2.1769e-26 
2.1079e-26 
2.1345e-26 
2.1637e-26 
2.136e-26 
2.5695e-26 
2.3324e-26 
2.1799e-26 
1.8455e-26 
2.1267e-26 
2.34826e-26 
2.1544e-26 
2.3748e-26 
2.1403e-26 
2.4793e-26 
2.2221e-26 
1.9422e-26 
2.3943e-26 
1.9476e-26 
2.4092e-26 
2.2344e-26 
2.2156e-26 
2.1215e-26 
2.4053e-26 
2.4239e-26 
2.2195e-26 
2.3562e-26 
2.5245e-26 
1.8546e-26 
2.4823e-26 
2.0456e-26 
2.2392e-26 
2.2727e-26 
0 
2.4148e-26 
2.2578e-26 
3.03795e-26 
2.5232e-26 
2.4758e-26 
0 
2.7079e-26 
2.3363e-26 
3.0343e-26 
2.5537e-26 
2.64782e-26 
2.6067e-26 
1.9865e-26 
2.5005e-26 
2.74263e-26 
2.4014e-26 
0 
2.5948e-26 
2.3019e-26 
0 
2.5699e-26 
2.6919e-26 
2.3612e-26 
2.3588e-26 
2.64928e-26 
2.43096e-26 
2.6149e-26 
0 
2.67047e-26 
2.5879e-26 
0 
2.3365e-26 
1.7869e-26 
0 
0 
1.4739e-26 
0 
0 
1.7144e-26 
2.20387e-26 
0 
1.563e-26 
1.87398e-26 
0 
1.7012e-26 
8.74205e-27 
0 
1.8678e-26 
2.1479e-26 
0 
1.7975e-26 
1.9009e-26 
0 
0 
1.8572e-26 
1.937e-26 
0 
0 
1.6489e-26 
1.4462e-26 
0 
0 
2.1596e-26 
0 
0 
2.8368e-26 
5.43391e-26 
2.2883e-26 
2.36501e-26 
0 
2.6385e-26 
2.11847e-26 
0 
2.3432e-26 
0 
2.404e-26 
2.51622e-26 
2.364e-26 
2.6359e-26 
0 
2.6004e-26 
2.4412e-26 
2.4466e-26 
2.8403e-26 
2.3893e-26 
2.3497e-26 
2.02314e-26 
2.2502e-26 
2.396e-26 
3.0631e-26 
0 
2.457e-26 
2.32956e-26 
2.5182e-26 
0 
2.3082e-26 
2.18661e-26 
2.8213e-26 
2.2515e-26 
2.4012e-26 
2.3283e-26 
1.7484e-26 
2.2303e-26 
2.2701e-26 
2.5736e-26 
2.1295e-26 
2.5723e-26 
2.0326e-26 
2.4224e-26 
1.9582e-26 
2.3938e-26 
1.9632e-26 
2.3458e-26 
2.0542e-26 
2.4903e-26 
1.7635e-26 
2.2785e-26 
2.2913e-26 
2.0151e-26 
2.0445e-26 
2.2563e-26 
2.4328e-26 
2.292e-26 
2.2526e-26 
2.5347e-26 
2.3365e-26 
2.1319e-26 
2.3508e-26 
2.1756e-26 
2.401e-26 
2.1254e-26 
2.3008e-26 
0 
0 
1.7233e-26 
1.597e-26 
0 
0 
1.9301e-26 
0 
0 
1.7886e-26 
0 
0 
1.9422e-26 
1.979e-26 
0 
0 
1.7908e-26 
1.8107e-26 
0 
2.14066e-26 
1.8825e-26 
0 
2.00162e-26 
1.86e-26 
0 
1.72634e-26 
1.7538e-26 
0 
2.55664e-27 
1.5736e-26 
0 
0 
1.7512e-26 
1.6461e-26 
8.466e-27 
2.91402e-27 
1.1886e-26 
1.138e-26 
9.885e-27 
9.948e-27 
9.193e-27 
1.2429e-26 
9.658e-27 
8.477e-27 
1.2299e-26 
6.647e-27 
6.606e-27 
9.366e-27 
5.042e-27 
9.593e-27 
1.2498e-26 
7.932e-27 
1.01495e-26 
9.991e-27 
6.394e-27 
9.30499e-27 
1.1077e-26 
7.46503e-27 
1.21e-26 
7.575e-27 
1.3746e-26 
5.293e-27 
1.3785e-26 
9.818e-27 
1.2775e-26 
6.009e-27 
5.373e-27 
0 
0 
0 
0 
0 
0 
0 
4.98101e-27 
0 
0 
0 
3.16652e-27 
0 
0 
0 
4.445e-27 
0 
2.12e-28 
4.91147e-27 
0 
5.95036e-27 
0 
0 
4.406e-27 
0 
1.021e-27 
0 
0 
0 
0 
0 
1.22656e-27 
0 
6.807e-27 
4.921e-27 
2.003e-27 
7.936e-27 
4.683e-27 
2.706e-27 
5.758e-27 
4.549e-27 
2.654e-27 
5.916e-27 
5.743e-27 
3.649e-27 
6.022e-27 
5.6e-27 
3.53e-27 
2.135e-27 
4.724e-27 
4.988e-27 
4.337e-27 
1.964e-27 
5.611e-27 
4.91e-27 
3.861e-27 
3.729e-27 
6.58e-27 
4.073e-27 
2.057e-27 
5.254e-27 
4.657e-27 
3.21e-27 
5.477e-27 
4.404e-27 
4.021e-27 
0 
0 
0 
0 
0 
0 
0 
0 
2.43e-27 
0 
0 
3.184e-27 
0 
0 
4.24427e-27 
0 
0 
0 
4.29667e-27 
0 
0 
0 
4.458e-27 
0 
1.274e-27 
0 
4.244e-27 
0 
0 
2.6782e-27 
0 
0 
1.80238e-27 
1.96834e-26 
8.144e-27 
1.4737e-26 
9.723e-27 
9.77255e-27 
1.2096e-26 
6.658e-27 
7.19496e-27 
1.1966e-26 
6.567e-27 
1.637e-26 
8.929e-27 
5.851e-27 
1.3759e-26 
8.053e-27 
5.745e-27 
1.1516e-26 
7.218e-27 
9.141e-27 
1.6078e-26 
7.88e-27 
1.385e-26 
1.1689e-26 
6.368e-27 
1.1687e-26 
9.526e-27 
6.619e-27 
9.762e-27 
7.96e-27 
1.0545e-26 
1.32484e-26 
6.58e-27 
1.223e-26 
8.862e-27 
2.68e-27 
4.512e-27 
5.823e-27 
7.83e-28 
3.556e-27 
5.972e-27 
1.711e-27 
3.411e-27 
5.427e-27 
6.792e-27 
3.344e-27 
3.132e-27 
4.711e-27 
5.996e-27 
3.422e-27 
3.662e-27 
4.285e-27 
5.453e-27 
3.396e-27 
3.688e-27 
5.637e-27 
2.946e-27 
5.427e-27 
6.474e-27 
3.662e-27 
4.67e-27 
5.613e-27 
2.202e-27 
4.313e-27 
6.288e-27 
2.587e-27 
4.073e-27 
5.637e-27 
