ITEM: TIMESTEP
950
ITEM: NUMBER OF CELLS
400
ITEM: BOX BOUNDS oo rr pp
0 10
0 10
-0.5 0.5
ITEM: CELLS c_dens[1] 
2.3692e-26 
2.1066e-26 
2.518e-26 
2.2273e-26 
2.2383e-26 
2.1135e-26 
2.4851e-26 
2.3958e-26 
2.1202e-26 
1.8773e-26 
2.0181e-26 
1.97903e-26 
2.266e-26 
2.3841e-26 
2.0177e-26 
2.433e-26 
2.0577e-26 
2.3696e-26 
2.5288e-26 
2.4027e-26 
2.4797e-26 
2.5591e-26 
2.4267e-26 
2.3112e-26 
2.5561e-26 
2.4317e-26 
1.9783e-26 
2.5909e-26 
2.2076e-26 
1.7858e-26 
2.5883e-26 
2.4326e-26 
2.5457e-26 
2.6002e-26 
0 
2.1903e-26 
2.4609e-26 
3.08914e-26 
2.5541e-26 
2.6173e-26 
0 
2.741e-26 
2.3722e-26 
2.8206e-26 
2.5697e-26 
2.60152e-26 
2.677e-26 
2.84835e-26 
2.4317e-26 
3.15109e-26 
2.7462e-26 
0 
2.4373e-26 
2.5338e-26 
0 
2.5208e-26 
2.6928e-26 
2.7159e-26 
2.6729e-26 
2.87986e-26 
2.45918e-26 
2.5221e-26 
0 
2.37219e-26 
2.4981e-26 
0 
2.908e-26 
1.6939e-26 
0 
0 
1.6504e-26 
0 
0 
2.0722e-26 
2.22725e-26 
0 
1.8613e-26 
2.22919e-26 
0 
1.6924e-26 
1.9326e-26 
0 
2.0761e-26 
2.1797e-26 
0 
1.8529e-26 
2.3811e-26 
0 
0 
1.6902e-26 
2.0564e-26 
0 
0 
1.576e-26 
1.5905e-26 
0 
0 
1.8531e-26 
0 
0 
2.7356e-26 
2.88509e-26 
2.6681e-26 
2.53167e-26 
0 
2.2833e-26 
2.7051e-26 
0 
2.3426e-26 
0 
2.8736e-26 
3.28948e-26 
2.6242e-26 
2.5818e-26 
0 
2.6266e-26 
2.8405e-26 
2.1116e-26 
2.688e-26 
2.5007e-26 
2.8708e-26 
2.2267e-26 
2.4211e-26 
2.7144e-26 
2.4905e-26 
0 
2.3166e-26 
2.54282e-26 
2.7594e-26 
0 
2.8284e-26 
1.62875e-26 
2.6441e-26 
2.7187e-26 
2.4198e-26 
2.4094e-26 
2.2489e-26 
2.3506e-26 
2.3893e-26 
2.6493e-26 
2.372e-26 
2.4451e-26 
2.0257e-26 
2.3882e-26 
2.1834e-26 
2.4689e-26 
2.1836e-26 
2.0869e-26 
2.2074e-26 
2.4079e-26 
2.1821e-26 
2.3722e-26 
2.539e-26 
2.0235e-26 
2.3281e-26 
2.2472e-26 
2.4198e-26 
2.1306e-26 
2.4849e-26 
2.4916e-26 
2.128e-26 
2.2154e-26 
2.3696e-26 
2.2353e-26 
2.4131e-26 
2.3192e-26 
2.4542e-26 
0 
0 
1.5297e-26 
1.5855e-26 
0 
0 
1.844e-26 
0 
0 
1.7724e-26 
0 
0 
2.0681e-26 
1.7951e-26 
0 
0 
2.0071e-26 
1.945e-26 
0 
2.37568e-26 
2.1596e-26 
0 
1.98285e-26 
2.0471e-26 
0 
1.82233e-26 
1.8148e-26 
0 
1.67693e-26 
1.5572e-26 
0 
0 
1.884e-26 
1.5377e-26 
8.358e-27 
8.02729e-27 
1.2948e-26 
1.0813e-26 
1.056e-26 
9.526e-27 
8.745e-27 
1.6543e-26 
8.306e-27 
7.242e-27 
1.2005e-26 
6.766e-27 
7.482e-27 
1.1131e-26 
5.918e-27 
9.193e-27 
1.3757e-26 
8.053e-27 
1.2805e-26 
1.0415e-26 
6.368e-27 
7.73055e-27 
1.2325e-26 
8.47727e-27 
1.324e-26 
7.789e-27 
1.6422e-26 
6.381e-27 
1.3028e-26 
8.862e-27 
1.0865e-26 
5.027e-27 
4.218e-27 
0 
5.11332e-28 
0 
0 
0 
0 
0 
1.11498e-27 
0 
0 
0 
3.95866e-27 
0 
0 
0 
5.027e-27 
0 
5.97e-28 
4.53582e-27 
0 
3.75706e-27 
0 
0 
5.213e-27 
0 
1.447e-27 
0 
0 
0 
0 
0 
1.15723e-27 
0 
6.658e-27 
4.445e-27 
2.613e-27 
6.716e-27 
5.016e-27 
3.024e-27 
7.588e-27 
5.042e-27 
4.112e-27 
5.572e-27 
4.605e-27 
4.484e-27 
7.073e-27 
5.786e-27 
2.933e-27 
3.249e-27 
5.864e-27 
5.745e-27 
2.613e-27 
3.184e-27 
6.117e-27 
6.117e-27 
3.476e-27 
4.032e-27 
5.797e-27 
3.554e-27 
3.688e-27 
6.435e-27 
4.073e-27 
2.972e-27 
5.983e-27 
3.502e-27 
4.112e-27 
0 
0 
0 
0 
0 
0 
0 
0 
1.55719e-27 
0 
0 
1.884e-27 
0 
0 
4.98435e-27 
0 
0 
0 
6.09876e-27 
0 
1.47128e-27 
0 
5.732e-27 
0 
1.512e-27 
0 
3.969e-27 
0 
0 
3.86602e-27 
0 
0 
2.7437e-27 
2.25974e-26 
8.094e-27 
1.5256e-26 
7.27e-27 
9.79557e-27 
1.1302e-26 
6.355e-27 
7.91755e-27 
9.686e-27 
5.996e-27 
1.5072e-26 
7.601e-27 
5.373e-27 
1.2524e-26 
7.086e-27 
6.314e-27 
1.1146e-26 
8.399e-27 
9.976e-27 
1.563e-26 
8.823e-27 
1.4579e-26 
1.3385e-26 
7.363e-27 
1.4047e-26 
8.942e-27 
7.164e-27 
1.1185e-26 
9.234e-27 
1.1516e-26 
1.18988e-26 
7.218e-27 
1.2909e-26 
7.681e-27 
5.003e-27 
3.556e-27 
5.107e-27 
5.04e-28 
5.213e-27 
6.42e-27 
2.098e-27 
3.913e-27 
6.063e-27 
5.518e-27 
2.07e-27 
3.556e-27 
4.592e-27 
7.59e-27 
4.257e-27 
3.608e-27 
5.531e-27 
6.223e-27 
2.163e-27 
4.644e-27 
7.337e-27 
3.874e-27 
6.939e-27 
5.107e-27 
3.967e-27 
4.83e-27 
4.564e-27 
2.639e-27 
3.861e-27 
4.923e-27 
2.825e-27 
4.936e-27 
5.706e-27 
