ITEM: TIMESTEP
150
ITEM: NUMBER OF CELLS
400
ITEM: BOX BOUNDS oo rr pp
0 10
0 10
-0.5 0.5
ITEM: CELLS c_dens[1] 
1.608e-26 
1.5405e-26 
1.8483e-26 
1.6424e-26 
1.73e-26 
1.3307e-26 
1.7938e-26 
1.5935e-26 
1.6156e-26 
1.2459e-26 
1.4737e-26 
1.51146e-26 
1.5879e-26 
1.5684e-26 
1.5416e-26 
2.0073e-26 
1.5693e-26 
1.3997e-26 
1.6571e-26 
1.5308e-26 
1.6889e-26 
1.5749e-26 
1.8308e-26 
1.3415e-26 
1.5375e-26 
1.6716e-26 
1.5576e-26 
1.6489e-26 
1.4421e-26 
1.3186e-26 
1.8096e-26 
1.571e-26 
1.6915e-26 
1.9143e-26 
0 
2.2606e-26 
1.7207e-26 
1.78295e-26 
1.8399e-26 
1.9928e-26 
0 
2.0986e-26 
1.9539e-26 
1.8189e-26 
1.7592e-26 
1.99651e-26 
1.7523e-26 
2.28603e-26 
1.6861e-26 
1.87362e-26 
1.7473e-26 
0 
1.7168e-26 
1.6952e-26 
0 
1.7845e-26 
2.0166e-26 
1.6223e-26 
1.592e-26 
2.40615e-26 
1.79264e-26 
2.003e-26 
0 
1.79975e-26 
1.8479e-26 
0 
1.9318e-26 
1.1648e-26 
0 
0 
1.0575e-26 
0 
0 
1.2961e-26 
1.79937e-26 
0 
1.1834e-26 
1.32484e-26 
0 
7.586e-27 
2.11679e-26 
0 
1.2989e-26 
1.6504e-26 
0 
1.043e-26 
1.1793e-26 
0 
0 
1.1077e-26 
8.598e-27 
0 
0 
8.994e-27 
1.0333e-26 
0 
0 
1.1888e-26 
0 
0 
1.7802e-26 
5.25589e-27 
1.8321e-26 
1.98427e-26 
0 
1.7445e-26 
2.09662e-26 
0 
1.8468e-26 
0 
2.0006e-26 
2.12212e-26 
1.7006e-26 
1.8665e-26 
0 
1.8163e-26 
1.9928e-26 
1.8083e-26 
2.2844e-26 
1.7778e-26 
1.8468e-26 
2.19535e-26 
1.8334e-26 
1.5565e-26 
1.8059e-26 
0 
1.9487e-26 
1.95823e-26 
1.7618e-26 
0 
1.8959e-26 
2.09803e-26 
2.2991e-26 
1.9513e-26 
1.7021e-26 
1.6707e-26 
1.4683e-26 
1.8174e-26 
1.5042e-26 
1.6649e-26 
1.5918e-26 
1.5812e-26 
1.3915e-26 
1.6887e-26 
1.4728e-26 
1.4475e-26 
1.2167e-26 
1.6249e-26 
1.2511e-26 
1.4172e-26 
1.4633e-26 
1.616e-26 
1.8583e-26 
1.5297e-26 
1.6887e-26 
1.6623e-26 
1.8085e-26 
1.5044e-26 
1.823e-26 
1.7166e-26 
1.3839e-26 
1.7819e-26 
1.6995e-26 
1.239e-26 
1.5829e-26 
1.6625e-26 
1.4942e-26 
0 
0 
9.433e-27 
1.0729e-26 
0 
0 
1.1994e-26 
0 
0 
7.802e-27 
0 
0 
1.284e-26 
1.3123e-26 
0 
0 
1.255e-26 
1.2364e-26 
0 
1.5262e-26 
1.467e-26 
0 
1.46145e-26 
1.1118e-26 
0 
9.82305e-27 
9.872e-27 
0 
5.47066e-27 
9.327e-27 
0 
0 
1.1408e-26 
7.469e-27 
3.342e-27 
2.55664e-27 
4.711e-27 
4.231e-27 
4.365e-27 
5.161e-27 
3.595e-27 
7.854e-27 
2.468e-27 
3.465e-27 
7.389e-27 
3.344e-27 
2.68e-27 
5.187e-27 
2.295e-27 
4.843e-27 
6.182e-27 
2.003e-27 
3.29871e-27 
6.954e-27 
2.574e-27 
4.51259e-27 
5.412e-27 
2.50381e-27 
8.014e-27 
5.334e-27 
6.937e-27 
2.468e-27 
7.497e-27 
3.742e-27 
5.228e-27 
1.739e-27 
1.261e-27 
0 
0 
0 
0 
0 
0 
0 
0 
0 
0 
0 
6.14169e-28 
0 
0 
0 
5.97e-28 
0 
0 
1.71004e-27 
0 
1.20851e-27 
0 
0 
4.78e-28 
0 
9.3e-29 
0 
0 
0 
0 
0 
1.65318e-28 
0 
2.574e-27 
2.336e-27 
3.72e-28 
1.685e-27 
1.021e-27 
1.86e-28 
1.3e-27 
9.15e-28 
3.05e-28 
1.142e-27 
6.1e-28 
1.99e-28 
2.706e-27 
1.765e-27 
1.021e-27 
9.3e-29 
2.667e-27 
9.69e-28 
3.85e-28 
5.17e-28 
9.69e-28 
1.021e-27 
5.97e-28 
4.11e-28 
1.326e-27 
4.91e-28 
2.92e-28 
1.287e-27 
1.168e-27 
3.05e-28 
1.445e-27 
9.69e-28 
3.85e-28 
0 
0 
0 
0 
0 
0 
0 
0 
5.19064e-28 
0 
0 
1.06e-28 
0 
0 
1.11573e-27 
0 
0 
0 
1.11857e-27 
0 
0 
0 
1.049e-27 
0 
2.92e-28 
0 
9.56e-28 
0 
0 
5.93911e-28 
0 
0 
7.09843e-28 
5.47066e-27 
3.411e-27 
7.164e-27 
3.024e-27 
3.5704e-27 
6.714e-27 
3.251e-27 
2.31208e-27 
4.138e-27 
2.07e-27 
9.459e-27 
4.246e-27 
2.799e-27 
6.846e-27 
3.45e-27 
1.871e-27 
5.321e-27 
2.215e-27 
3.835e-27 
6.037e-27 
2.92e-27 
9.924e-27 
4.802e-27 
2.985e-27 
7.655e-27 
4.538e-27 
2.654e-27 
4.525e-27 
2.762e-27 
3.822e-27 
6.78745e-27 
2.083e-27 
7.019e-27 
2.76e-27 
6.1e-28 
1.021e-27 
8.89e-28 
0 
5.84e-28 
2.336e-27 
1.06e-28 
6.9e-28 
2.003e-27 
1.858e-27 
1.99e-28 
9.69e-28 
1.473e-27 
1.858e-27 
1.86e-28 
4.78e-28 
1.181e-27 
1.91e-27 
3.98e-28 
1.088e-27 
2.68e-27 
4.91e-28 
9.95e-28 
1.618e-27 
6.9e-28 
1.075e-27 
7.03e-28 
1.99e-28 
9.82e-28 
1.631e-27 
3.05e-28 
1.512e-27 
1.579e-27 
