ITEM: TIMESTEP
50
ITEM: NUMBER OF CELLS
400
ITEM: BOX BOUNDS oo rr pp
0 10
0 10
-0.5 0.5
ITEM: CELLS c_dens[1] 
1.4153e-26 
4.153e-27 
1.1955e-26 
5.133e-27 
1.0495e-26 
3.329e-27 
1.173e-26 
4.034e-27 
8.306e-27 
2.057e-27 
8.821e-27 
3.43152e-27 
7.43e-27 
7.484e-27 
4.192e-27 
1.4594e-26 
5.864e-27 
2.667e-27 
1.2455e-26 
5.347e-27 
9.035e-27 
6.582e-27 
1.2805e-26 
3.809e-27 
1.3372e-26 
1.1581e-26 
3.158e-27 
1.1527e-26 
9.061e-27 
1.672e-27 
9.457e-27 
5.215e-27 
9.035e-27 
9.883e-27 
0 
1.3597e-26 
1.4592e-26 
7.78241e-27 
1.4183e-26 
1.0454e-26 
0 
1.0493e-26 
9.113e-27 
1.0257e-26 
1.3476e-26 
7.68585e-27 
1.4077e-26 
5.62324e-27 
1.2193e-26 
4.24142e-27 
1.125e-26 
0 
9.087e-27 
8.583e-27 
0 
7.495e-27 
9.831e-27 
7.322e-27 
1.3904e-26 
1.10081e-26 
4.99705e-27 
1.0984e-26 
0 
4.83858e-27 
1.0536e-26 
0 
9.58e-27 
9.95e-28 
0 
0 
1.86e-28 
0 
0 
2.92e-28 
2.34839e-27 
0 
1.101e-27 
1.48613e-27 
0 
2.12e-28 
0 
0 
1.765e-27 
2.879e-27 
0 
1.287e-27 
1.951e-27 
0 
0 
9.02e-28 
8.09e-28 
0 
0 
1.99e-28 
3.05e-28 
0 
0 
1.419e-27 
0 
0 
9.117e-27 
1.31397e-26 
1.3082e-26 
6.89165e-27 
0 
1.0826e-26 
2.6782e-27 
0 
1.0692e-26 
0 
1.4222e-26 
5.89458e-27 
1.4077e-26 
1.2894e-26 
0 
1.1172e-26 
8.464e-27 
8.131e-27 
8.438e-27 
7.96e-27 
1.3811e-26 
1.03086e-26 
1.3532e-26 
5.295e-27 
1.3201e-26 
0 
1.3069e-26 
6.33933e-27 
9.898e-27 
0 
9.712e-27 
5.50578e-27 
9.539e-27 
8.836e-27 
6.846e-27 
1.2788e-26 
4.525e-27 
1.4142e-26 
4.644e-27 
1.4038e-26 
5.016e-27 
1.1265e-26 
3.569e-27 
1.2126e-26 
2.535e-27 
9.26e-27 
1.884e-27 
8.784e-27 
1.38e-27 
7.867e-27 
4.949e-27 
4.207e-27 
1.1062e-26 
2.388e-27 
9.392e-27 
6.714e-27 
1.3478e-26 
5.479e-27 
1.4737e-26 
1.3028e-26 
2.721e-27 
1.1105e-26 
9.063e-27 
2.414e-27 
8.04e-27 
7.497e-27 
7.428e-27 
0 
0 
2.92e-28 
8.09e-28 
0 
0 
6.9e-28 
0 
0 
3.98e-28 
0 
0 
2.282e-27 
1.434e-27 
0 
0 
1.114e-27 
3.98e-28 
0 
3.69025e-27 
2.905e-27 
0 
1.90386e-27 
1.155e-27 
0 
1.93927e-27 
6.51e-28 
0 
2.55664e-27 
2.79e-28 
0 
0 
1.194e-27 
1.06e-28 
0 
2.55664e-27 
0 
0 
0 
0 
0 
2.92e-28 
0 
0 
1.99e-28 
0 
0 
0 
0 
9.3e-29 
9.3e-29 
0 
0 
9.3e-29 
0 
0 
9.3e-29 
0 
0 
0 
5.71e-28 
0 
0 
0 
0 
0 
0 
0 
0 
0 
0 
0 
0 
0 
0 
0 
0 
0 
0 
0 
0 
0 
0 
0 
0 
0 
0 
0 
0 
0 
0 
0 
0 
0 
0 
0 
0 
0 
0 
0 
0 
0 
0 
0 
0 
0 
0 
0 
0 
0 
0 
0 
0 
0 
0 
0 
0 
0 
0 
0 
0 
0 
0 
0 
0 
0 
0 
0 
0 
0 
0 
0 
0 
0 
0 
0 
0 
0 
0 
0 
0 
0 
0 
0 
0 
0 
0 
0 
0 
0 
0 
0 
0 
0 
0 
0 
0 
0 
0 
0 
0 
0 
0 
0 
0 
0 
0 
0 
3.98e-28 
0 
0 
0 
0 
0 
0 
0 
9.3e-29 
0 
0 
1.86e-28 
0 
0 
9.3e-29 
0 
0 
1.99e-28 
1.06e-28 
0 
0 
0 
1.06e-28 
0 
0 
0 
0 
9.3e-29 
0 
0 
9.3e-29 
0 
0 
0 
0 
0 
0 
0 
0 
0 
0 
0 
0 
0 
0 
0 
0 
0 
0 
0 
0 
0 
0 
0 
0 
0 
0 
0 
0 
0 
0 
0 
0 
0 
0 
