ITEM: TIMESTEP
100
ITEM: NUMBER OF CELLS
400
ITEM: BOX BOUNDS oo rr pp
0 10
0 10
-0.5 0.5
ITEM: CELLS c_dens[1] 
1.4672e-26 
1.0426e-26 
1.6015e-26 
1.2273e-26 
1.5338e-26 
9.247e-27 
1.5085e-26 
1.0586e-26 
1.3876e-26 
7.659e-27 
1.5165e-26 
1.0979e-26 
1.2007e-26 
1.3954e-26 
1.1819e-26 
1.6143e-26 
1.1157e-26 
9.539e-27 
1.483e-26 
9.937e-27 
1.4155e-26 
1.364e-26 
1.5325e-26 
1.1034e-26 
1.4992e-26 
1.4259e-26 
8.968e-27 
1.568e-26 
1.4367e-26 
1.0867e-26 
1.2377e-26 
1.2089e-26 
1.2167e-26 
1.5094e-26 
0 
1.7315e-26 
1.8652e-26 
1.73833e-26 
1.7192e-26 
1.372e-26 
0 
1.6104e-26 
1.3932e-26 
1.775e-26 
1.5855e-26 
1.44242e-26 
1.5522e-26 
1.65024e-26 
1.5509e-26 
1.1077e-26 
1.3426e-26 
0 
1.5762e-26 
1.8706e-26 
0 
1.3344e-26 
1.8204e-26 
1.4981e-26 
1.8107e-26 
1.88759e-26 
1.25887e-26 
1.6281e-26 
0 
1.5026e-26 
1.5723e-26 
0 
1.6876e-26 
7.683e-27 
0 
0 
4.869e-27 
0 
0 
7.056e-27 
1.0906e-26 
0 
6.063e-27 
1.01495e-26 
0 
3.649e-27 
0 
0 
9.537e-27 
1.1064e-26 
0 
7.045e-27 
9.314e-27 
0 
0 
7.032e-27 
6.861e-27 
0 
0 
4.763e-27 
5.479e-27 
0 
0 
8.596e-27 
0 
0 
1.7789e-26 
1.9865e-26 
1.5416e-26 
1.52318e-26 
0 
1.3015e-26 
1.91844e-26 
0 
1.4051e-26 
0 
1.913e-26 
1.74953e-26 
1.7538e-26 
1.4605e-26 
0 
1.5535e-26 
1.8001e-26 
1.5113e-26 
1.5215e-26 
1.5005e-26 
1.6281e-26 
1.68305e-26 
1.6225e-26 
1.4075e-26 
1.8124e-26 
0 
1.4832e-26 
1.50372e-26 
1.5152e-26 
0 
1.5256e-26 
9.44729e-27 
2.059e-26 
1.5403e-26 
1.438e-26 
1.648e-26 
1.1689e-26 
1.6106e-26 
1.1834e-26 
1.4869e-26 
1.0467e-26 
1.438e-26 
1.2031e-26 
1.4808e-26 
1.0067e-26 
1.1845e-26 
1.1581e-26 
1.2111e-26 
7.034e-27 
1.3242e-26 
1.1425e-26 
1.2191e-26 
1.5747e-26 
8.598e-27 
1.3731e-26 
1.2684e-26 
1.8163e-26 
1.2364e-26 
1.645e-26 
1.3426e-26 
9.076e-27 
1.5323e-26 
1.441e-26 
1.0588e-26 
1.3346e-26 
1.4261e-26 
1.3558e-26 
0 
0 
4.83e-27 
5.189e-27 
0 
0 
6.303e-27 
0 
0 
4.815e-27 
0 
0 
8.903e-27 
7.497e-27 
0 
0 
6.913e-27 
5.52e-27 
0 
1.06533e-26 
9.076e-27 
0 
1.12319e-26 
7.084e-27 
0 
4.84818e-27 
5.654e-27 
0 
5.82803e-27 
5.89e-27 
0 
0 
8.237e-27 
3.517e-27 
1.618e-27 
0 
2.68e-27 
1.698e-27 
1.752e-27 
2.189e-27 
1.194e-27 
3.636e-27 
7.96e-28 
9.69e-28 
3.675e-27 
6.9e-28 
5.17e-28 
1.91e-27 
8.89e-28 
1.752e-27 
4.021e-27 
6.77e-28 
2.45576e-27 
2.667e-27 
3.85e-28 
1.38672e-27 
2.44e-27 
3.00993e-28 
3.833e-27 
1.579e-27 
4.034e-27 
6.64e-28 
3.768e-27 
7.03e-28 
2.561e-27 
4.78e-28 
9.3e-29 
0 
0 
0 
0 
0 
0 
0 
0 
0 
0 
0 
2.18097e-28 
0 
0 
0 
9.3e-29 
0 
1.06e-28 
5.9431e-28 
0 
1.0455e-28 
0 
0 
9.3e-29 
0 
0 
0 
0 
0 
0 
0 
0 
0 
5.97e-28 
6.77e-28 
0 
4.91e-28 
6.1e-28 
0 
6.64e-28 
1.06e-28 
0 
1.86e-28 
1.06e-28 
2.12e-28 
7.03e-28 
5.17e-28 
9.3e-29 
0 
6.1e-28 
5.17e-28 
1.06e-28 
0 
1.86e-28 
9.3e-29 
0 
0 
8.35e-28 
1.06e-28 
0 
2.92e-28 
9.3e-29 
0 
9.3e-29 
0 
0 
0 
0 
0 
0 
0 
0 
0 
0 
0 
0 
0 
0 
0 
0 
0 
0 
0 
0 
0 
0 
0 
0 
1.99e-28 
0 
0 
0 
1.86e-28 
0 
0 
0 
0 
0 
9.56745e-29 
0 
3.98e-28 
3.861e-27 
5.84e-28 
4.94118e-28 
2.427e-27 
5.04e-28 
6.84449e-28 
1.964e-27 
8.89e-28 
3.649e-27 
1.711e-27 
5.04e-28 
3.199e-27 
1.101e-27 
1.86e-28 
2.07e-27 
1.354e-27 
1.765e-27 
4.192e-27 
1.075e-27 
5.771e-27 
3.848e-27 
7.03e-28 
2.6e-27 
1.512e-27 
7.7e-28 
2.786e-27 
1.341e-27 
1.685e-27 
9.69636e-28 
8.63e-28 
3.236e-27 
9.28e-28 
0 
0 
0 
0 
9.3e-29 
6.1e-28 
0 
2.12e-28 
9.56e-28 
5.71e-28 
0 
2.92e-28 
1.99e-28 
2.92e-28 
0 
0 
0 
4.91e-28 
0 
1.99e-28 
4.11e-28 
0 
3.98e-28 
2.79e-28 
9.3e-29 
0 
1.06e-28 
0 
1.86e-28 
5.84e-28 
0 
1.06e-28 
4.91e-28 
