ITEM: TIMESTEP
400
ITEM: NUMBER OF CELLS
400
ITEM: BOX BOUNDS oo rr pp
0 10
0 10
-0.5 0.5
ITEM: CELLS c_dens[1] 
2.1133e-26 
1.8546e-26 
2.4793e-26 
2.2141e-26 
2.0722e-26 
1.844e-26 
2.2342e-26 
2.0259e-26 
2.1927e-26 
2.0456e-26 
2.4235e-26 
1.98439e-26 
1.8827e-26 
1.9781e-26 
2.0921e-26 
2.1228e-26 
2.2537e-26 
2.0112e-26 
2.234e-26 
2.0776e-26 
2.1892e-26 
2.3893e-26 
2.0287e-26 
2.0166e-26 
2.2803e-26 
2.03e-26 
2.0787e-26 
2.1665e-26 
1.9794e-26 
1.8771e-26 
2.3259e-26 
2.1624e-26 
2.5091e-26 
2.0021e-26 
0 
2.1836e-26 
2.1213e-26 
2.57044e-26 
2.3214e-26 
2.1367e-26 
0 
2.8604e-26 
2.2857e-26 
2.7075e-26 
2.2926e-26 
2.68876e-26 
2.3653e-26 
2.2493e-26 
2.1012e-26 
2.83957e-26 
2.5074e-26 
0 
1.977e-26 
2.4278e-26 
0 
2.4466e-26 
2.7393e-26 
2.2167e-26 
2.4332e-26 
2.96331e-26 
2.69773e-26 
2.1475e-26 
0 
2.59534e-26 
2.4319e-26 
0 
2.6759e-26 
1.7566e-26 
0 
0 
1.6861e-26 
0 
0 
1.6705e-26 
1.861e-26 
0 
1.7006e-26 
1.80966e-26 
0 
1.6236e-26 
1.05839e-26 
0 
1.9582e-26 
2.0272e-26 
0 
1.6809e-26 
2.0112e-26 
0 
0 
1.4724e-26 
1.8256e-26 
0 
0 
1.5816e-26 
1.5282e-26 
0 
0 
1.9214e-26 
0 
0 
2.5924e-26 
3.07441e-26 
2.4001e-26 
2.59484e-26 
0 
2.4133e-26 
2.42383e-26 
0 
2.3257e-26 
0 
2.1559e-26 
2.6858e-26 
2.1412e-26 
2.3456e-26 
0 
2.2446e-26 
2.5468e-26 
2.2366e-26 
2.4862e-26 
2.4293e-26 
2.5552e-26 
2.62323e-26 
2.3679e-26 
2.6227e-26 
2.4172e-26 
0 
2.457e-26 
2.3517e-26 
2.5913e-26 
0 
2.4845e-26 
2.03019e-26 
2.319e-26 
2.5719e-26 
2.1187e-26 
2.1851e-26 
1.9623e-26 
2.4248e-26 
2.2284e-26 
2.1518e-26 
2.1267e-26 
2.0339e-26 
2.0112e-26 
2.165e-26 
1.7075e-26 
1.9982e-26 
1.9911e-26 
2.0062e-26 
1.828e-26 
2.3495e-26 
1.9461e-26 
1.9978e-26 
2.0908e-26 
2.0499e-26 
2.2965e-26 
2.2234e-26 
2.1278e-26 
2.0525e-26 
2.1014e-26 
2.1769e-26 
2.096e-26 
2.2126e-26 
2.1987e-26 
2.0882e-26 
2.0153e-26 
2.0882e-26 
2.1555e-26 
0 
0 
1.6612e-26 
1.2948e-26 
0 
0 
1.5364e-26 
0 
0 
1.5613e-26 
0 
0 
1.974e-26 
1.6504e-26 
0 
0 
1.8258e-26 
1.669e-26 
0 
2.22539e-26 
1.6822e-26 
0 
1.96638e-26 
1.7832e-26 
0 
2.19752e-26 
2.0162e-26 
0 
1.96834e-26 
1.5401e-26 
0 
0 
1.6638e-26 
1.3891e-26 
7.763e-27 
1.9326e-26 
9.777e-27 
9.301e-27 
8.797e-27 
7.27e-27 
8.477e-27 
1.3692e-26 
7.709e-27 
6.515e-27 
1.3666e-26 
5.412e-27 
5.572e-27 
9.844e-27 
5.678e-27 
7.934e-27 
1.3969e-26 
6.595e-27 
8.33692e-27 
1.234e-26 
6.898e-27 
9.20936e-27 
9.377e-27 
6.94963e-27 
1.4605e-26 
9.457e-27 
1.2563e-26 
5.652e-27 
1.3491e-26 
6.913e-27 
1.242e-26 
4.233e-27 
4.577e-27 
0 
0 
0 
0 
0 
0 
0 
2.22997e-27 
0 
0 
0 
2.48548e-27 
0 
0 
0 
3.448e-27 
0 
1.86e-28 
8.40444e-27 
0 
4.65417e-27 
0 
0 
5.226e-27 
0 
7.16e-28 
0 
0 
0 
0 
0 
7.30601e-28 
0 
6.887e-27 
6.448e-27 
1.724e-27 
5.479e-27 
4.631e-27 
1.737e-27 
4.153e-27 
3.424e-27 
2.057e-27 
6.621e-27 
4.482e-27 
2.693e-27 
5.849e-27 
4.538e-27 
2.799e-27 
1.22e-27 
5.665e-27 
4.735e-27 
3.941e-27 
2.15e-27 
4.685e-27 
4.326e-27 
2.853e-27 
2.879e-27 
5.241e-27 
3.941e-27 
8.76e-28 
5.239e-27 
4.019e-27 
3.223e-27 
3.316e-27 
3.688e-27 
2.163e-27 
0 
0 
0 
0 
0 
0 
0 
0 
1.43809e-27 
0 
0 
1.38e-27 
0 
0 
9.44729e-27 
0 
0 
0 
4.25058e-27 
0 
4.48621e-28 
0 
4.402e-27 
0 
3.05e-28 
0 
4.14e-27 
0 
0 
3.79318e-27 
0 
0 
2.93505e-27 
2.29548e-26 
7.867e-27 
1.1077e-26 
8.412e-27 
8.38583e-27 
9.489e-27 
6.316e-27 
6.88985e-27 
8.808e-27 
5.665e-27 
1.2204e-26 
8.847e-27 
6.779e-27 
1.1899e-26 
6.634e-27 
5.027e-27 
1.056e-26 
7.257e-27 
8.001e-27 
1.4222e-26 
7.947e-27 
1.2881e-26 
1.2009e-26 
6.236e-27 
1.1676e-26 
8.862e-27 
7.536e-27 
1.2461e-26 
9.301e-27 
1.0627e-26 
1.07927e-26 
4.616e-27 
1.3028e-26 
7.932e-27 
4.841e-27 
3.662e-27 
4.813e-27 
5.04e-28 
3.422e-27 
6.009e-27 
1.393e-27 
3.703e-27 
4.06e-27 
6.275e-27 
2.507e-27 
3.634e-27 
4.962e-27 
5.559e-27 
3.476e-27 
2.654e-27 
4.737e-27 
4.006e-27 
2.587e-27 
5.399e-27 
6.262e-27 
2.282e-27 
4.456e-27 
4.311e-27 
3.158e-27 
3.768e-27 
4.588e-27 
1.181e-27 
3.357e-27 
5.626e-27 
2.481e-27 
2.892e-27 
5.639e-27 
