ITEM: TIMESTEP
350
ITEM: NUMBER OF CELLS
400
ITEM: BOX BOUNDS oo rr pp
0 10
0 10
-0.5 0.5
ITEM: CELLS c_dens[1] 
2.0484e-26 
2.0653e-26 
2.2928e-26 
1.9022e-26 
2.2117e-26 
1.8094e-26 
2.2485e-26 
2.3629e-26 
2.4408e-26 
2.0285e-26 
2.0789e-26 
2.20044e-26 
1.9383e-26 
2.112e-26 
1.6478e-26 
2.5061e-26 
1.8215e-26 
1.9305e-26 
2.0402e-26 
2.0603e-26 
1.9833e-26 
1.9567e-26 
1.9314e-26 
2.0897e-26 
2.1691e-26 
1.9465e-26 
2.1429e-26 
2.0642e-26 
2.3086e-26 
1.945e-26 
2.091e-26 
2.1051e-26 
2.3599e-26 
2.1624e-26 
0 
2.4927e-26 
2.3707e-26 
2.82268e-26 
2.1332e-26 
2.2487e-26 
0 
2.5751e-26 
2.4304e-26 
2.6404e-26 
2.2569e-26 
2.45667e-26 
2.0175e-26 
2.84835e-26 
1.9301e-26 
2.19243e-26 
2.3138e-26 
0 
2.2567e-26 
2.4808e-26 
0 
2.3482e-26 
2.5338e-26 
2.261e-26 
2.3467e-26 
2.60538e-26 
2.51898e-26 
2.3852e-26 
0 
2.29819e-26 
2.6495e-26 
0 
2.6703e-26 
1.5239e-26 
0 
0 
1.5375e-26 
0 
0 
1.852e-26 
1.89589e-26 
0 
1.5801e-26 
1.54508e-26 
0 
1.5905e-26 
1.56972e-26 
0 
1.9783e-26 
2.056e-26 
0 
1.6333e-26 
1.9937e-26 
0 
0 
1.8072e-26 
1.7655e-26 
0 
0 
1.4317e-26 
1.6054e-26 
0 
0 
1.8055e-26 
0 
0 
2.4925e-26 
2.43862e-26 
2.2489e-26 
2.37479e-26 
0 
2.2591e-26 
2.34146e-26 
0 
2.1133e-26 
0 
2.282e-26 
2.62927e-26 
2.229e-26 
2.2989e-26 
0 
2.3815e-26 
2.5946e-26 
2.2926e-26 
2.6335e-26 
2.1118e-26 
2.263e-26 
2.40615e-26 
2.1875e-26 
2.1957e-26 
2.4438e-26 
0 
2.4795e-26 
2.46839e-26 
2.2539e-26 
0 
2.4027e-26 
1.64444e-26 
2.5619e-26 
2.2368e-26 
2.38e-26 
1.9368e-26 
1.9316e-26 
2.1782e-26 
2.4453e-26 
2.0259e-26 
2.3082e-26 
2.2197e-26 
2.1107e-26 
2.2409e-26 
1.9684e-26 
2.4029e-26 
1.9571e-26 
2.0852e-26 
1.7726e-26 
2.3203e-26 
2.1025e-26 
2.3413e-26 
2.0828e-26 
1.8851e-26 
2.0707e-26 
1.9569e-26 
2.1544e-26 
1.9279e-26 
2.2753e-26 
1.8122e-26 
1.8957e-26 
2.2171e-26 
2.2602e-26 
1.8083e-26 
1.977e-26 
2.1555e-26 
2.0748e-26 
0 
0 
1.4737e-26 
1.5455e-26 
0 
0 
1.6902e-26 
0 
0 
1.4077e-26 
0 
0 
2.1012e-26 
1.953e-26 
0 
0 
1.7791e-26 
1.8284e-26 
0 
2.1623e-26 
1.5918e-26 
0 
1.58401e-26 
1.7114e-26 
0 
1.37016e-26 
1.783e-26 
0 
1.86112e-26 
1.3508e-26 
0 
0 
1.4421e-26 
1.4103e-26 
6.301e-27 
5.47066e-27 
1.1966e-26 
8.479e-27 
9.526e-27 
7.229e-27 
5.97e-27 
1.3147e-26 
6.848e-27 
7.257e-27 
1.2351e-26 
5.585e-27 
5.97e-27 
8.131e-27 
3.902e-27 
8.053e-27 
1.1263e-26 
5.771e-27 
8.79007e-27 
1.0335e-26 
6.013e-27 
6.11006e-27 
9.673e-27 
5.41581e-27 
1.4568e-26 
8.557e-27 
1.149e-26 
5.836e-27 
1.2007e-26 
5.836e-27 
1.2299e-26 
6.779e-27 
3.703e-27 
0 
0 
0 
0 
0 
0 
0 
1.78173e-27 
0 
0 
0 
2.15628e-27 
0 
0 
0 
2.52e-27 
0 
3.85e-28 
2.23147e-27 
0 
4.13142e-27 
0 
0 
4.564e-27 
0 
8.89e-28 
0 
0 
0 
0 
0 
1.5803e-27 
0 
6.236e-27 
3.995e-27 
8.09e-28 
5.585e-27 
3.104e-27 
1.713e-27 
4.034e-27 
4.681e-27 
2.176e-27 
3.277e-27 
2.892e-27 
2.84e-27 
5.535e-27 
3.833e-27 
2.918e-27 
1.739e-27 
4.776e-27 
4.073e-27 
2.07e-27 
1.592e-27 
4.616e-27 
5.574e-27 
3.621e-27 
3.344e-27 
4.14e-27 
2.959e-27 
1.752e-27 
4.59e-27 
3.768e-27 
3.104e-27 
3.889e-27 
3.952e-27 
2.613e-27 
0 
0 
0 
0 
0 
0 
0 
0 
1.6994e-27 
0 
0 
1.605e-27 
0 
0 
2.68e-27 
0 
0 
0 
4.40122e-27 
0 
4.48621e-28 
0 
4.631e-27 
0 
8.89e-28 
0 
4.843e-27 
0 
0 
3.41779e-27 
0 
0 
2.5256e-27 
8.02729e-27 
6.13e-27 
1.4542e-26 
8.518e-27 
6.69627e-27 
1.0547e-26 
5.505e-27 
6.87851e-27 
8.518e-27 
6.327e-27 
1.1596e-26 
9.275e-27 
5.267e-27 
1.0344e-26 
7.428e-27 
4.551e-27 
8.821e-27 
6.089e-27 
7.627e-27 
1.4261e-26 
7.824e-27 
1.7099e-26 
1.2003e-26 
7.642e-27 
9.273e-27 
8.559e-27 
6.301e-27 
1.2087e-26 
8.767e-27 
8.092e-27 
1.33118e-26 
4.871e-27 
1.1635e-26 
6.991e-27 
3.556e-27 
2.933e-27 
4.138e-27 
1.86e-28 
3.277e-27 
5.637e-27 
1.287e-27 
3.13e-27 
5.771e-27 
4.417e-27 
1.181e-27 
2.559e-27 
4.828e-27 
4.841e-27 
1.447e-27 
2.84e-27 
4.895e-27 
3.132e-27 
1.884e-27 
3.396e-27 
5.996e-27 
1.354e-27 
3.065e-27 
4.512e-27 
2.574e-27 
4.432e-27 
5.2e-27 
1.685e-27 
3.926e-27 
5.081e-27 
2.295e-27 
3.595e-27 
4.458e-27 
