ITEM: TIMESTEP
250
ITEM: NUMBER OF CELLS
400
ITEM: BOX BOUNDS oo rr pp
0 10
0 10
-0.5 0.5
ITEM: CELLS c_dens[1] 
2.2422e-26 
1.7711e-26 
2.1572e-26 
2.1105e-26 
1.9991e-26 
1.6545e-26 
1.9411e-26 
1.7538e-26 
2.0233e-26 
1.7101e-26 
2.0908e-26 
1.74895e-26 
1.9515e-26 
1.95e-26 
1.8998e-26 
1.8122e-26 
1.7817e-26 
1.6703e-26 
1.8825e-26 
1.6833e-26 
1.783e-26 
2.2035e-26 
2.0218e-26 
2.0378e-26 
2.253e-26 
1.9024e-26 
1.8243e-26 
2.0348e-26 
2.0709e-26 
1.8375e-26 
1.7657e-26 
1.7341e-26 
2.1531e-26 
2.0417e-26 
0 
2.3216e-26 
2.088e-26 
2.37276e-26 
2.2831e-26 
2.1159e-26 
0 
2.189e-26 
2.3108e-26 
2.5829e-26 
2.1308e-26 
2.22726e-26 
2.1427e-26 
2.02324e-26 
2.3415e-26 
2.48322e-26 
2.1001e-26 
0 
1.9913e-26 
2.2952e-26 
0 
2.0856e-26 
2.2714e-26 
2.176e-26 
2.2606e-26 
2.96862e-26 
2.35485e-26 
2.165e-26 
0 
2.22418e-26 
2.1851e-26 
0 
2.3906e-26 
1.4304e-26 
0 
0 
1.21e-26 
0 
0 
1.6145e-26 
1.93149e-26 
0 
1.5044e-26 
1.62938e-26 
0 
1.1397e-26 
8.02729e-27 
0 
1.5721e-26 
1.7192e-26 
0 
1.5055e-26 
1.7432e-26 
0 
0 
1.515e-26 
1.547e-26 
0 
0 
1.2379e-26 
1.2353e-26 
0 
0 
1.7313e-26 
0 
0 
2.253e-26 
2.96421e-26 
1.9967e-26 
2.12469e-26 
0 
2.2431e-26 
3.12195e-26 
0 
2.2874e-26 
0 
2.1319e-26 
2.83886e-26 
2.0722e-26 
2.505e-26 
0 
1.8548e-26 
2.0445e-26 
2.1518e-26 
2.2145e-26 
2.1282e-26 
2.1572e-26 
3.06461e-26 
1.9024e-26 
2.0261e-26 
2.4994e-26 
0 
2.1436e-26 
2.06863e-26 
2.0287e-26 
0 
2.0843e-26 
2.09074e-26 
2.5433e-26 
2.0908e-26 
1.9911e-26 
2.0962e-26 
1.881e-26 
2.0257e-26 
1.9751e-26 
2.0164e-26 
1.9491e-26 
2.1611e-26 
1.8589e-26 
2.1509e-26 
1.8758e-26 
1.8481e-26 
2.0415e-26 
1.8267e-26 
1.6078e-26 
1.8057e-26 
1.889e-26 
1.8081e-26 
1.9411e-26 
1.6426e-26 
1.8414e-26 
1.9937e-26 
1.8892e-26 
1.767e-26 
2.1107e-26 
1.998e-26 
1.7828e-26 
1.8825e-26 
1.8494e-26 
1.6582e-26 
1.9558e-26 
1.8946e-26 
1.8676e-26 
0 
0 
1.2444e-26 
1.0878e-26 
0 
0 
1.5641e-26 
0 
0 
1.2379e-26 
0 
0 
1.4858e-26 
1.7235e-26 
0 
0 
1.6212e-26 
1.5113e-26 
0 
1.81297e-26 
1.8122e-26 
0 
1.83266e-26 
1.5206e-26 
0 
1.42814e-26 
1.3279e-26 
0 
1.67693e-26 
1.3556e-26 
0 
0 
1.6928e-26 
1.1702e-26 
6.128e-27 
8.74205e-27 
9.974e-27 
7.997e-27 
9.604e-27 
8.371e-27 
7.709e-27 
1.1994e-26 
5.319e-27 
4.365e-27 
9.593e-27 
5.001e-27 
4.988e-27 
9.844e-27 
3.98e-27 
7.268e-27 
1.0841e-26 
4.988e-27 
1.02129e-26 
1.0441e-26 
3.623e-27 
6.15964e-27 
5.626e-27 
5.42921e-27 
1.1557e-26 
8.849e-27 
1.1901e-26 
5.626e-27 
1.1036e-26 
5.585e-27 
8.691e-27 
2.613e-27 
3.515e-27 
0 
0 
0 
0 
0 
0 
0 
1.78173e-27 
0 
0 
0 
1.63778e-27 
0 
0 
0 
2.401e-27 
0 
1.86e-28 
5.50578e-27 
0 
3.56482e-27 
0 
0 
2.721e-27 
0 
3.85e-28 
0 
0 
0 
0 
0 
1.76873e-27 
0 
4.882e-27 
3.249e-27 
1.261e-27 
4.657e-27 
3.065e-27 
1.101e-27 
4.006e-27 
2.667e-27 
1.525e-27 
3.835e-27 
2.401e-27 
1.752e-27 
4.804e-27 
3.409e-27 
2.122e-27 
4.78e-28 
4.417e-27 
2.84e-27 
2.719e-27 
5.84e-28 
3.543e-27 
3.528e-27 
2.719e-27 
1.871e-27 
4.51e-27 
2.029e-27 
9.95e-28 
2.641e-27 
1.99e-27 
1.618e-27 
3.383e-27 
1.432e-27 
1.3e-27 
0 
0 
0 
0 
0 
0 
0 
0 
7.30601e-28 
0 
0 
1.512e-27 
0 
0 
3.94151e-27 
0 
0 
0 
2.44625e-27 
0 
5.11332e-28 
0 
3.755e-27 
0 
6.64e-28 
0 
3.822e-27 
0 
0 
2.3028e-27 
0 
0 
1.48861e-27 
1.12987e-26 
5.148e-27 
1.4209e-26 
7.547e-27 
6.60063e-27 
9.394e-27 
5.479e-27 
5.27974e-27 
8.081e-27 
4.38e-27 
1.1315e-26 
6.608e-27 
4.393e-27 
1.2604e-26 
6.156e-27 
3.952e-27 
8.451e-27 
6.963e-27 
8.278e-27 
9.42e-27 
6.197e-27 
1.2388e-26 
8.862e-27 
3.755e-27 
1.0242e-26 
8.663e-27 
4.629e-27 
8.639e-27 
6.66e-27 
8.185e-27 
5.23799e-27 
4.962e-27 
9.673e-27 
5.479e-27 
1.393e-27 
2.122e-27 
3.859e-27 
1.99e-28 
2.109e-27 
4.75e-27 
1.075e-27 
1.3e-27 
4.722e-27 
3.621e-27 
1.114e-27 
1.618e-27 
4.67e-27 
3.528e-27 
1.897e-27 
1.776e-27 
3.409e-27 
3.316e-27 
1.871e-27 
3.29e-27 
4.205e-27 
1.763e-27 
2.189e-27 
4.988e-27 
2.044e-27 
2.734e-27 
2.427e-27 
9.02e-28 
3.582e-27 
4.337e-27 
1.659e-27 
2.812e-27 
3.251e-27 
