ITEM: TIMESTEP
500
ITEM: NUMBER OF CELLS
400
ITEM: BOX BOUNDS oo rr pp
0 10
0 10
-0.5 0.5
ITEM: CELLS c_dens[1] 
2.059e-26 
2.1066e-26 
2.0668e-26 
2.2818e-26 
2.2662e-26 
2.0694e-26 
2.0685e-26 
2.2219e-26 
2.1051e-26 
2.123e-26 
2.5217e-26 
2.24951e-26 
1.8113e-26 
2.1492e-26 
2.1721e-26 
2.3694e-26 
2.3346e-26 
2.0579e-26 
2.2208e-26 
2.1626e-26 
2.3294e-26 
2.1708e-26 
2.2829e-26 
2.2193e-26 
2.3945e-26 
2.112e-26 
2.234e-26 
2.4198e-26 
2.128e-26 
2.0878e-26 
2.0244e-26 
2.3415e-26 
2.2859e-26 
2.3097e-26 
0 
2.5554e-26 
2.5459e-26 
2.91725e-26 
2.3642e-26 
2.6179e-26 
0 
2.5883e-26 
2.5299e-26 
3.1371e-26 
1.9398e-26 
2.49206e-26 
2.2779e-26 
2.81162e-26 
2.5208e-26 
2.38629e-26 
2.3653e-26 
0 
2.1265e-26 
2.709e-26 
0 
2.5087e-26 
2.5087e-26 
2.2604e-26 
2.3733e-26 
2.79737e-26 
2.63792e-26 
2.5206e-26 
0 
2.32846e-26 
2.4308e-26 
0 
2.3629e-26 
1.6647e-26 
0 
0 
1.5721e-26 
0 
0 
1.913e-26 
2.2299e-26 
0 
1.5178e-26 
2.31446e-26 
0 
1.6913e-26 
1.67693e-26 
0 
1.8029e-26 
1.876e-26 
0 
1.7525e-26 
1.9513e-26 
0 
0 
1.7047e-26 
1.5085e-26 
0 
0 
1.6106e-26 
1.7352e-26 
0 
0 
1.6121e-26 
0 
0 
2.6322e-26 
2.62229e-26 
2.2539e-26 
2.45688e-26 
0 
2.6906e-26 
2.63842e-26 
0 
2.2617e-26 
0 
2.4996e-26 
2.54733e-26 
2.2898e-26 
2.5511e-26 
0 
2.364e-26 
2.6694e-26 
2.4354e-26 
2.9249e-26 
2.6675e-26 
2.3227e-26 
2.2267e-26 
2.5139e-26 
2.5881e-26 
2.5487e-26 
0 
2.513e-26 
2.40735e-26 
2.8092e-26 
0 
2.4358e-26 
2.28361e-26 
2.9902e-26 
2.5539e-26 
2.1626e-26 
2.0631e-26 
2.1516e-26 
2.4624e-26 
2.0804e-26 
2.2013e-26 
2.2621e-26 
2.3309e-26 
2.035e-26 
1.9889e-26 
2.0272e-26 
2.0047e-26 
2.0774e-26 
1.9552e-26 
2.0962e-26 
2.0841e-26 
2.0696e-26 
2.3039e-26 
2.2684e-26 
2.0071e-26 
2.1892e-26 
2.3601e-26 
2.2656e-26 
2.1176e-26 
2.2634e-26 
2.2842e-26 
1.8611e-26 
2.4198e-26 
2.2779e-26 
1.9794e-26 
2.1211e-26 
2.3787e-26 
2.4278e-26 
0 
0 
1.5619e-26 
1.4834e-26 
0 
0 
1.576e-26 
0 
0 
1.6595e-26 
0 
0 
1.9e-26 
1.9249e-26 
0 
0 
1.8269e-26 
1.8762e-26 
0 
2.02943e-26 
1.7906e-26 
0 
1.99737e-26 
2.0512e-26 
0 
1.89396e-26 
1.5777e-26 
0 
2.77107e-26 
1.563e-26 
0 
0 
1.7802e-26 
1.5267e-26 
6.143e-27 
1.56972e-26 
1.0841e-26 
9.924e-27 
9.526e-27 
8.756e-27 
9.537e-27 
1.3374e-26 
7.311e-27 
8.107e-27 
1.2007e-26 
5.226e-27 
7.761e-27 
1.0439e-26 
6.169e-27 
8.661e-27 
1.3794e-26 
6.156e-27 
1.00862e-26 
1.1992e-26 
6.249e-27 
8.85692e-27 
1.173e-26 
7.44029e-27 
1.5083e-26 
9.128e-27 
1.4447e-26 
7.045e-27 
1.1317e-26 
7.891e-27 
1.3002e-26 
6.712e-27 
4.404e-27 
0 
0 
0 
0 
0 
0 
0 
5.05384e-27 
0 
0 
0 
3.68501e-27 
0 
0 
0 
3.489e-27 
0 
4.11e-28 
6.76728e-27 
0 
4.54962e-27 
0 
0 
4.51e-27 
0 
1.512e-27 
0 
0 
0 
0 
0 
2.26469e-27 
0 
7.071e-27 
4.51e-27 
2.548e-27 
8.038e-27 
4.285e-27 
2.083e-27 
4.96e-27 
4.921e-27 
3.039e-27 
4.166e-27 
4.352e-27 
2.414e-27 
6.353e-27 
6.768e-27 
3.874e-27 
2.083e-27 
4.605e-27 
4.802e-27 
4.047e-27 
3.29e-27 
5.28e-27 
3.29e-27 
2.706e-27 
1.897e-27 
7.004e-27 
4.22e-27 
1.871e-27 
5.572e-27 
3.887e-27 
2.044e-27 
4.722e-27 
3.251e-27 
3.939e-27 
0 
0 
0 
0 
0 
0 
0 
0 
1.20345e-27 
0 
0 
1.791e-27 
0 
0 
2.82578e-27 
0 
0 
0 
6.42702e-27 
0 
8.97242e-28 
0 
3.595e-27 
0 
1.287e-27 
0 
4.471e-27 
0 
0 
6.09599e-27 
0 
0 
2.75707e-27 
1.34979e-26 
8.239e-27 
1.1276e-26 
9.087e-27 
8.50449e-27 
1.0164e-26 
7.047e-27 
5.36014e-27 
9.061e-27 
5.875e-27 
1.3956e-26 
8.875e-27 
4.497e-27 
1.2498e-26 
8.386e-27 
6.911e-27 
1.0374e-26 
6.076e-27 
1.0084e-26 
1.2018e-26 
7.536e-27 
1.5258e-26 
1.0428e-26 
8.371e-27 
1.1942e-26 
9.967e-27 
5.957e-27 
1.1739e-26 
8.529e-27 
9.699e-27 
1.03395e-26 
6.939e-27 
1.3582e-26 
7.326e-27 
4.391e-27 
3.437e-27 
5.029e-27 
3.05e-28 
3.993e-27 
4.748e-27 
1.871e-27 
2.416e-27 
4.285e-27 
5.016e-27 
2.282e-27 
3.807e-27 
6.42e-27 
6.407e-27 
4.086e-27 
3.768e-27 
4.073e-27 
4.404e-27 
2.654e-27 
4.326e-27 
7.203e-27 
2.719e-27 
6.82e-27 
7.389e-27 
3.29e-27 
4.882e-27 
5.347e-27 
1.644e-27 
3.357e-27 
8.596e-27 
3.848e-27 
3.833e-27 
6.275e-27 
