ITEM: TIMESTEP
850
ITEM: NUMBER OF CELLS
400
ITEM: BOX BOUNDS oo rr pp
0 10
0 10
-0.5 0.5
ITEM: CELLS c_dens[1] 
2.5031e-26 
2.1732e-26 
2.4421e-26 
2.2647e-26 
2.3257e-26 
2.1849e-26 
2.2952e-26 
2.6318e-26 
2.3772e-26 
2.059e-26 
2.2236e-26 
2.42206e-26 
2.1851e-26 
2.104e-26 
2.1269e-26 
2.6372e-26 
2.2046e-26 
2.3008e-26 
2.3508e-26 
2.3534e-26 
2.452e-26 
2.1587e-26 
2.274e-26 
2.1399e-26 
2.5736e-26 
2.2697e-26 
2.1931e-26 
2.6759e-26 
2.2275e-26 
1.6781e-26 
2.4436e-26 
2.213e-26 
2.5751e-26 
2.3841e-26 
0 
2.4702e-26 
2.523e-26 
2.96844e-26 
2.6519e-26 
2.4728e-26 
0 
2.3748e-26 
2.5381e-26 
2.94e-26 
2.2952e-26 
2.52745e-26 
2.6067e-26 
2.54882e-26 
2.4159e-26 
2.74263e-26 
2.3424e-26 
0 
2.3255e-26 
2.863e-26 
0 
2.3311e-26 
2.8336e-26 
2.5511e-26 
2.465e-26 
3.47464e-26 
2.36508e-26 
2.5831e-26 
0 
2.34304e-26 
2.9e-26 
0 
2.7025e-26 
1.4741e-26 
0 
0 
1.7499e-26 
0 
0 
1.9651e-26 
2.38894e-26 
0 
1.6811e-26 
1.75168e-26 
0 
1.8892e-26 
1.34979e-26 
0 
1.8959e-26 
2.0923e-26 
0 
1.7551e-26 
2.1994e-26 
0 
0 
1.7765e-26 
1.7566e-26 
0 
0 
1.6703e-26 
1.491e-26 
0 
0 
2.0949e-26 
0 
0 
2.77e-26 
2.47536e-26 
2.6638e-26 
2.61665e-26 
0 
2.5907e-26 
2.85525e-26 
0 
2.7276e-26 
0 
2.6415e-26 
3.10337e-26 
2.3614e-26 
2.5753e-26 
0 
2.4691e-26 
2.5487e-26 
2.2264e-26 
2.722e-26 
2.4224e-26 
2.3867e-26 
3.46837e-26 
2.5128e-26 
2.714e-26 
2.7397e-26 
0 
2.5991e-26 
2.66243e-26 
2.8358e-26 
0 
2.327e-26 
1.55474e-26 
3.0105e-26 
2.3415e-26 
2.6136e-26 
2.3348e-26 
2.1996e-26 
2.5602e-26 
2.3631e-26 
2.3359e-26 
2.2517e-26 
2.3417e-26 
2.2926e-26 
2.5645e-26 
2.0802e-26 
2.4745e-26 
2.3404e-26 
2.3093e-26 
1.9569e-26 
2.4955e-26 
2.3313e-26 
2.3932e-26 
2.42e-26 
2.0084e-26 
2.1955e-26 
1.8903e-26 
2.4172e-26 
2.3437e-26 
2.3493e-26 
2.7181e-26 
2.0309e-26 
2.4635e-26 
2.2234e-26 
1.8107e-26 
2.367e-26 
2.2158e-26 
2.4862e-26 
0 
0 
1.6409e-26 
1.7592e-26 
0 
0 
1.8942e-26 
0 
0 
1.6452e-26 
0 
0 
2.1747e-26 
1.8544e-26 
0 
0 
1.7869e-26 
1.8492e-26 
0 
2.26734e-26 
1.9277e-26 
0 
2.23221e-26 
1.8721e-26 
0 
1.23422e-26 
1.6385e-26 
0 
1.05839e-26 
1.6067e-26 
0 
0 
1.8001e-26 
1.552e-26 
8.412e-27 
1.05839e-26 
1.2935e-26 
1.0878e-26 
1.2271e-26 
8.436e-27 
9.818e-27 
1.5537e-26 
8.081e-27 
6.5e-27 
1.5377e-26 
6.329e-27 
7.123e-27 
1.1332e-26 
5.985e-27 
9.089e-27 
1.4047e-26 
7.776e-27 
9.3699e-27 
1.1343e-26 
7.482e-27 
1.07608e-26 
1.0359e-26 
7.72788e-27 
1.6731e-26 
9.167e-27 
1.5576e-26 
6.487e-27 
1.186e-26 
9.5e-27 
1.3002e-26 
7.218e-27 
5.678e-27 
0 
4.48621e-28 
0 
0 
0 
0 
0 
3.49063e-27 
0 
0 
0 
3.02866e-27 
0 
0 
0 
3.143e-27 
0 
5.04e-28 
9.30151e-27 
0 
6.06953e-27 
0 
0 
6.037e-27 
0 
1.3e-27 
0 
0 
0 
0 
0 
3.76855e-28 
0 
8.105e-27 
5.401e-27 
1.936e-27 
7.59e-27 
5.49e-27 
2.202e-27 
5.507e-27 
6.368e-27 
2.533e-27 
4.737e-27 
5.358e-27 
4.802e-27 
7.575e-27 
6.513e-27 
5.36e-27 
2.507e-27 
6.327e-27 
5.267e-27 
2.866e-27 
2.918e-27 
5.626e-27 
4.365e-27 
3.595e-27 
2.109e-27 
6.234e-27 
4.802e-27 
3.37e-27 
7.374e-27 
4.763e-27 
2.561e-27 
5.345e-27 
3.608e-27 
2.442e-27 
0 
0 
0 
0 
0 
0 
0 
0 
1.43809e-27 
0 
0 
3.264e-27 
0 
0 
8.40444e-27 
0 
0 
0 
4.93859e-27 
0 
0 
0 
4.668e-27 
0 
1.127e-27 
0 
4.91e-27 
0 
0 
4.3871e-27 
0 
0 
3.09759e-27 
2.8068e-26 
7.815e-27 
1.5189e-26 
9.656e-27 
9.2129e-27 
1.1648e-26 
7.387e-27 
8.65766e-27 
1.1845e-26 
7.733e-27 
1.2762e-26 
8.901e-27 
7.166e-27 
1.3108e-26 
6.727e-27 
4.644e-27 
1.0484e-26 
6.355e-27 
9.517e-27 
1.4025e-26 
9.178e-27 
1.5855e-26 
1.0973e-26 
7.64e-27 
1.1276e-26 
9.498e-27 
7.469e-27 
1.0443e-26 
8.849e-27 
1.0562e-26 
8.72673e-27 
6.565e-27 
1.3757e-26 
8.172e-27 
3.197e-27 
3.608e-27 
5.029e-27 
4.11e-28 
4.603e-27 
5.849e-27 
2.295e-27 
3.104e-27 
5.957e-27 
6.342e-27 
3.649e-27 
3.184e-27 
5.942e-27 
6.009e-27 
3.965e-27 
3.582e-27 
4.975e-27 
6.98e-27 
2.613e-27 
5.559e-27 
7.614e-27 
3.755e-27 
5.89e-27 
5.996e-27 
5.014e-27 
5.903e-27 
4.006e-27 
2.574e-27 
3.755e-27 
6.885e-27 
2.812e-27 
4.616e-27 
5.148e-27 
