ITEM: TIMESTEP
800
ITEM: NUMBER OF CELLS
400
ITEM: BOX BOUNDS oo rr pp
0 10
0 10
-0.5 0.5
ITEM: CELLS c_dens[1] 
2.587e-26 
2.3331e-26 
2.1319e-26 
2.3932e-26 
2.1829e-26 
1.9251e-26 
2.5537e-26 
2.2329e-26 
2.4873e-26 
2.0017e-26 
2.3164e-26 
2.37702e-26 
2.2061e-26 
2.1265e-26 
2.152e-26 
2.3439e-26 
2.1111e-26 
2.0406e-26 
2.6454e-26 
2.1401e-26 
2.4449e-26 
2.3367e-26 
2.5349e-26 
2.2807e-26 
2.3666e-26 
2.3692e-26 
2.0815e-26 
2.4382e-26 
2.6837e-26 
2.067e-26 
2.3454e-26 
2.2314e-26 
2.229e-26 
2.5857e-26 
0 
2.5842e-26 
2.2712e-26 
2.4005e-26 
2.4025e-26 
2.5654e-26 
0 
3.0211e-26 
2.4583e-26 
2.937e-26 
2.4786e-26 
2.39906e-26 
2.5576e-26 
2.2493e-26 
2.3205e-26 
2.69165e-26 
2.4187e-26 
0 
2.5076e-26 
2.725e-26 
0 
2.2593e-26 
2.7421e-26 
2.0882e-26 
2.5855e-26 
2.93099e-26 
2.48031e-26 
2.5381e-26 
0 
2.67776e-26 
2.8474e-26 
0 
2.6136e-26 
1.7629e-26 
0 
0 
1.9089e-26 
0 
0 
2.1972e-26 
2.49999e-26 
0 
1.8243e-26 
2.52739e-26 
0 
1.8215e-26 
1.86112e-26 
0 
1.9675e-26 
2.059e-26 
0 
1.9991e-26 
1.9212e-26 
0 
0 
1.8916e-26 
1.9556e-26 
0 
0 
1.7328e-26 
1.6305e-26 
0 
0 
2.0696e-26 
0 
0 
2.8836e-26 
4.27253e-26 
2.3019e-26 
2.74596e-26 
0 
2.4633e-26 
2.60929e-26 
0 
2.5991e-26 
0 
2.6802e-26 
2.64118e-26 
2.5109e-26 
2.5234e-26 
0 
2.7302e-26 
2.6162e-26 
2.3908e-26 
2.8245e-26 
2.685e-26 
2.6307e-26 
2.75781e-26 
2.449e-26 
2.5152e-26 
2.4916e-26 
0 
2.3175e-26 
2.37407e-26 
2.9143e-26 
0 
2.5632e-26 
2.64748e-26 
2.7464e-26 
2.5247e-26 
2.5057e-26 
2.1451e-26 
1.9844e-26 
2.3917e-26 
2.1663e-26 
2.3257e-26 
1.8561e-26 
2.5868e-26 
2.1518e-26 
2.4025e-26 
2.242e-26 
2.4531e-26 
1.9913e-26 
2.234e-26 
2.0352e-26 
2.3629e-26 
2.125e-26 
2.4994e-26 
2.3389e-26 
2.0272e-26 
2.2991e-26 
2.5383e-26 
2.4291e-26 
2.3114e-26 
2.4081e-26 
2.2781e-26 
1.9608e-26 
2.4051e-26 
2.4559e-26 
2.1053e-26 
2.03e-26 
2.4027e-26 
2.112e-26 
0 
0 
1.6519e-26 
1.4365e-26 
0 
0 
1.6307e-26 
0 
0 
1.6292e-26 
0 
0 
2.2223e-26 
1.7486e-26 
0 
0 
2.1594e-26 
1.8548e-26 
0 
2.3396e-26 
2.0975e-26 
0 
2.43446e-26 
1.8626e-26 
0 
1.91296e-26 
1.6677e-26 
0 
5.47066e-27 
1.3982e-26 
0 
0 
1.7659e-26 
1.6065e-26 
6.301e-27 
8.74205e-27 
1.327e-26 
1.0748e-26 
1.0614e-26 
9.58e-27 
1.0214e-26 
1.6275e-26 
7.813e-27 
9.128e-27 
1.3636e-26 
7.988e-27 
8.068e-27 
1.0227e-26 
5.161e-27 
1.0333e-26 
1.3692e-26 
7.653e-27 
8.66338e-27 
1.1633e-26 
6.712e-27 
8.55408e-27 
9.593e-27 
7.75469e-27 
1.5708e-26 
8.959e-27 
1.1793e-26 
5.691e-27 
1.3638e-26 
9.128e-27 
1.1036e-26 
6.792e-27 
5.624e-27 
0 
0 
0 
0 
0 
0 
0 
4.24142e-27 
0 
0 
0 
3.90311e-27 
0 
0 
0 
3.024e-27 
0 
4.24e-28 
6.76728e-27 
0 
4.69801e-27 
0 
0 
3.582e-27 
0 
1.168e-27 
0 
0 
0 
0 
0 
6.84383e-28 
0 
8.001e-27 
5.479e-27 
2.373e-27 
6.474e-27 
4.776e-27 
3.396e-27 
6.567e-27 
4.804e-27 
3.941e-27 
4.59e-27 
4.218e-27 
4.127e-27 
6.355e-27 
5.823e-27 
3.608e-27 
1.685e-27 
6.078e-27 
6.262e-27 
4.14e-27 
3.807e-27 
6.061e-27 
4.086e-27 
4.445e-27 
4.231e-27 
5.243e-27 
5.094e-27 
2.135e-27 
5.36e-27 
4.67e-27 
3.171e-27 
5.758e-27 
4.127e-27 
3.623e-27 
0 
0 
0 
0 
0 
0 
0 
0 
1.08435e-27 
0 
0 
1.949e-27 
0 
0 
2.82578e-27 
0 
0 
0 
3.92232e-27 
0 
4.48621e-28 
0 
4.815e-27 
0 
1.406e-27 
0 
3.396e-27 
0 
0 
3.86602e-27 
0 
0 
3.46692e-27 
8.38467e-27 
9.431e-27 
1.4875e-26 
8.159e-27 
8.43542e-27 
9.472e-27 
8.211e-27 
7.71448e-27 
1.1979e-26 
8.637e-27 
1.563e-26 
8.49e-27 
6.433e-27 
1.4393e-26 
9.606e-27 
5.319e-27 
1.0402e-26 
7.642e-27 
1.0134e-26 
1.2524e-26 
1.1648e-26 
1.4953e-26 
1.1581e-26 
7.534e-27 
1.4062e-26 
9.193e-27 
7.776e-27 
1.239e-26 
9.353e-27 
9.712e-27 
1.35749e-26 
5.743e-27 
1.1741e-26 
7.774e-27 
3.329e-27 
3.649e-27 
5.133e-27 
5.84e-28 
3.952e-27 
8.2e-27 
1.977e-27 
3.184e-27 
6.74e-27 
6.422e-27 
2.866e-27 
3.424e-27 
5.371e-27 
5.957e-27 
3.902e-27 
5.081e-27 
4.59e-27 
5.639e-27 
3.409e-27 
4.233e-27 
4.538e-27 
4.895e-27 
5.135e-27 
6.461e-27 
3.675e-27 
4.605e-27 
6.355e-27 
3.091e-27 
4.43e-27 
5.386e-27 
3.026e-27 
3.755e-27 
5.2e-27 
