ITEM: TIMESTEP
650
ITEM: NUMBER OF CELLS
400
ITEM: BOX BOUNDS oo rr pp
0 10
0 10
-0.5 0.5
ITEM: CELLS c_dens[1] 
2.4544e-26 
2.3307e-26 
2.5061e-26 
2.6465e-26 
2.173e-26 
2.2554e-26 
2.1678e-26 
2.3709e-26 
2.1782e-26 
2.2351e-26 
2.4518e-26 
2.59555e-26 
2.2703e-26 
2.1559e-26 
2.2208e-26 
2.2924e-26 
2.1719e-26 
2.0056e-26 
2.197e-26 
2.2379e-26 
2.258e-26 
2.0112e-26 
2.3268e-26 
1.8944e-26 
2.4516e-26 
2.1756e-26 
2.3735e-26 
2.4395e-26 
2.181e-26 
2.0789e-26 
2.428e-26 
2.25e-26 
2.6571e-26 
2.2268e-26 
0 
2.632e-26 
2.4568e-26 
2.57506e-26 
2.2158e-26 
2.4254e-26 
0 
2.3417e-26 
2.5401e-26 
2.7038e-26 
2.4254e-26 
2.76818e-26 
2.3815e-26 
3.44741e-26 
2.2158e-26 
2.69053e-26 
2.5113e-26 
0 
2.4702e-26 
2.7025e-26 
0 
2.2755e-26 
2.6201e-26 
2.1334e-26 
2.3828e-26 
2.58657e-26 
2.1598e-26 
2.7198e-26 
0 
2.23875e-26 
2.4769e-26 
0 
2.8204e-26 
1.6915e-26 
0 
0 
1.5126e-26 
0 
0 
1.937e-26 
1.91997e-26 
0 
1.8107e-26 
1.79066e-26 
0 
1.6995e-26 
2.15252e-26 
0 
2.311e-26 
2.1358e-26 
0 
1.7497e-26 
1.7233e-26 
0 
0 
1.6506e-26 
1.8851e-26 
0 
0 
1.5178e-26 
1.3227e-26 
0 
0 
2.0748e-26 
0 
0 
2.4051e-26 
2.77488e-26 
2.2673e-26 
2.30864e-26 
0 
2.8868e-26 
3.47102e-26 
0 
2.6889e-26 
0 
2.3858e-26 
2.64545e-26 
2.3748e-26 
2.4531e-26 
0 
2.5312e-26 
2.587e-26 
2.4051e-26 
2.9342e-26 
2.2736e-26 
2.4583e-26 
3.12202e-26 
2.3627e-26 
2.4332e-26 
2.4185e-26 
0 
2.8801e-26 
2.34293e-26 
2.6603e-26 
0 
2.4704e-26 
2.61833e-26 
2.8085e-26 
2.7663e-26 
2.1648e-26 
2.0642e-26 
2.3694e-26 
2.3826e-26 
2.1931e-26 
2.2569e-26 
1.9608e-26 
2.4079e-26 
2.2591e-26 
2.2764e-26 
1.9506e-26 
2.1561e-26 
2.2381e-26 
2.3086e-26 
1.9022e-26 
2.0936e-26 
2.1572e-26 
2.051e-26 
2.5684e-26 
1.9277e-26 
2.3655e-26 
2.0919e-26 
2.2461e-26 
1.9102e-26 
2.571e-26 
2.4477e-26 
1.7815e-26 
2.4899e-26 
2.441e-26 
2.0681e-26 
2.4332e-26 
2.1118e-26 
2.1088e-26 
0 
0 
1.4847e-26 
1.4977e-26 
0 
0 
1.8654e-26 
0 
0 
1.5254e-26 
0 
0 
1.8719e-26 
1.9035e-26 
0 
0 
1.7832e-26 
1.7488e-26 
0 
2.30301e-26 
2.1107e-26 
0 
2.1054e-26 
2.091e-26 
0 
2.27645e-26 
1.6454e-26 
0 
2.66385e-26 
1.5909e-26 
0 
0 
1.929e-26 
1.6279e-26 
8.252e-27 
1.05839e-26 
1.1499e-26 
1.1393e-26 
1.1741e-26 
9.803e-27 
8.916e-27 
1.4527e-26 
8.665e-27 
5.799e-27 
1.3067e-26 
6.567e-27 
6.859e-27 
1.1027e-26 
4.83e-27 
9.405e-27 
1.4276e-26 
7.988e-27 
9.50633e-27 
1.0811e-26 
6.634e-27 
1.05925e-26 
9.818e-27 
8.04022e-27 
1.3943e-26 
7.934e-27 
1.2314e-26 
6.82e-27 
1.202e-26 
7.761e-27 
1.3374e-26 
6.05e-27 
4.525e-27 
0 
4.48621e-28 
0 
0 
0 
0 
0 
3.34495e-27 
0 
0 
0 
2.55235e-27 
0 
0 
0 
2.959e-27 
0 
3.98e-28 
2.23147e-27 
0 
3.63789e-27 
0 
0 
5.782e-27 
0 
1.062e-27 
0 
0 
0 
0 
0 
1.10746e-27 
0 
6.911e-27 
6.143e-27 
1.871e-27 
5.704e-27 
4.657e-27 
2.388e-27 
6.342e-27 
3.543e-27 
2.07e-27 
4.895e-27 
5.399e-27 
3.887e-27 
8.715e-27 
6.314e-27 
3.688e-27 
2.096e-27 
6.128e-27 
3.593e-27 
2.918e-27 
2.946e-27 
5.866e-27 
5.362e-27 
4.006e-27 
3.926e-27 
5.678e-27 
5.161e-27 
1.752e-27 
6.048e-27 
4.685e-27 
3.517e-27 
4.949e-27 
5.771e-27 
3.398e-27 
0 
0 
0 
0 
0 
0 
0 
0 
2.16869e-27 
0 
0 
1.711e-27 
0 
0 
9.59306e-27 
0 
0 
0 
5.413e-27 
0 
0 
0 
5.066e-27 
0 
8.76e-28 
0 
3.859e-27 
0 
0 
5.93911e-28 
0 
0 
3.44017e-27 
2.99099e-26 
8.821e-27 
1.4633e-26 
9.671e-27 
8.55408e-27 
1.0878e-26 
7.891e-27 
7.17744e-27 
9.048e-27 
7.722e-27 
1.3694e-26 
9.71e-27 
5.784e-27 
1.3452e-26 
8.211e-27 
4.761e-27 
1.0759e-26 
6.963e-27 
1.056e-26 
1.5734e-26 
7.934e-27 
1.6121e-26 
1.329e-26 
9.604e-27 
1.218e-26 
1.0746e-26 
6.435e-27 
1.056e-26 
1.0309e-26 
1.0999e-26 
1.18257e-26 
6.699e-27 
1.2472e-26 
9.074e-27 
3.675e-27 
4.365e-27 
6.314e-27 
3.98e-28 
4.339e-27 
4.761e-27 
1.698e-27 
3.582e-27 
6.779e-27 
6.327e-27 
2.626e-27 
3.357e-27 
5.28e-27 
5.442e-27 
2.985e-27 
3.742e-27 
4.988e-27 
5.122e-27 
2.892e-27 
2.76e-27 
6.234e-27 
4.021e-27 
4.51e-27 
5.771e-27 
4.127e-27 
4.298e-27 
6.474e-27 
2.083e-27 
4.577e-27 
6.037e-27 
3.223e-27 
3.342e-27 
4.086e-27 
