ITEM: TIMESTEP
750
ITEM: NUMBER OF CELLS
400
ITEM: BOX BOUNDS oo rr pp
0 10
0 10
-0.5 0.5
ITEM: CELLS c_dens[1] 
2.3746e-26 
2.1269e-26 
2.2963e-26 
2.4966e-26 
2.3692e-26 
2.1146e-26 
2.3125e-26 
2.3627e-26 
1.9649e-26 
2.1516e-26 
2.2595e-26 
2.40578e-26 
2.0467e-26 
2.6281e-26 
2.0882e-26 
2.396e-26 
2.3737e-26 
2.2143e-26 
2.2171e-26 
2.2338e-26 
2.5232e-26 
2.014e-26 
2.417e-26 
2.4797e-26 
2.5528e-26 
2.3192e-26 
2.2552e-26 
2.7622e-26 
2.3484e-26 
2.3294e-26 
2.4568e-26 
2.157e-26 
2.1784e-26 
2.4797e-26 
0 
2.6761e-26 
2.4293e-26 
2.99493e-26 
2.738e-26 
2.5615e-26 
0 
2.6523e-26 
2.7685e-26 
2.7873e-26 
2.4542e-26 
2.30226e-26 
2.7464e-26 
3.6e-26 
2.4795e-26 
2.86254e-26 
2.6227e-26 
0 
2.5894e-26 
2.457e-26 
0 
2.6456e-26 
2.8299e-26 
2.4131e-26 
2.4341e-26 
2.84223e-26 
2.66074e-26 
2.4691e-26 
0 
2.3806e-26 
2.7685e-26 
0 
2.5496e-26 
1.5507e-26 
0 
0 
1.7629e-26 
0 
0 
1.8481e-26 
1.94796e-26 
0 
1.6703e-26 
2.03721e-26 
0 
1.7895e-26 
1.45701e-26 
0 
2.0324e-26 
2.1319e-26 
0 
1.8652e-26 
2.0713e-26 
0 
0 
1.8243e-26 
1.9978e-26 
0 
0 
1.722e-26 
1.6238e-26 
0 
0 
1.8656e-26 
0 
0 
2.6067e-26 
2.77488e-26 
2.6664e-26 
2.63938e-26 
0 
2.2078e-26 
2.89167e-26 
0 
2.624e-26 
0 
2.3958e-26 
2.43854e-26 
2.2896e-26 
2.4743e-26 
0 
2.4267e-26 
2.5219e-26 
2.7438e-26 
2.7181e-26 
2.4912e-26 
2.5749e-26 
2.66809e-26 
2.4622e-26 
2.4131e-26 
2.5011e-26 
0 
2.635e-26 
2.27897e-26 
2.6705e-26 
0 
2.6186e-26 
3.31692e-26 
2.4252e-26 
2.6387e-26 
2.3205e-26 
2.3642e-26 
2.3125e-26 
2.5697e-26 
2.2392e-26 
2.4118e-26 
2.2167e-26 
2.6344e-26 
2.255e-26 
2.2777e-26 
1.8137e-26 
2.1345e-26 
2.0352e-26 
2.1042e-26 
1.8548e-26 
2.4743e-26 
2.1211e-26 
2.3021e-26 
2.242e-26 
2.0789e-26 
2.4209e-26 
2.3244e-26 
2.5662e-26 
2.3056e-26 
2.3627e-26 
2.0298e-26 
2.274e-26 
2.0733e-26 
2.4256e-26 
2.1388e-26 
2.2807e-26 
2.4425e-26 
2.0839e-26 
0 
0 
1.746e-26 
1.5985e-26 
0 
0 
1.5734e-26 
0 
0 
1.4607e-26 
0 
0 
1.9889e-26 
1.6091e-26 
0 
0 
1.7311e-26 
1.7698e-26 
0 
2.2357e-26 
2.1267e-26 
0 
1.98285e-26 
1.8083e-26 
0 
2.47574e-26 
1.9476e-26 
0 
2.73533e-26 
1.364e-26 
0 
0 
1.9729e-26 
1.5137e-26 
7.028e-27 
1.09413e-26 
1.2338e-26 
1.0506e-26 
9.779e-27 
8.981e-27 
9.872e-27 
1.3917e-26 
7.179e-27 
6.699e-27 
1.3891e-26 
6.275e-27 
8.172e-27 
1.1862e-26 
6.528e-27 
8.174e-27 
1.2844e-26 
7.164e-27 
8.91676e-27 
1.3266e-26 
6.184e-27 
9.74952e-27 
1.1079e-26 
7.64336e-27 
1.3359e-26 
1.0402e-26 
1.409e-26 
6.037e-27 
1.2909e-26 
8.531e-27 
1.1821e-26 
5.373e-27 
5.468e-27 
0 
4.48621e-28 
0 
0 
0 
0 
0 
4.45993e-27 
0 
0 
0 
2.16965e-27 
0 
0 
0 
3.755e-27 
0 
5.84e-28 
6.24586e-27 
0 
7.14426e-27 
0 
0 
3.422e-27 
0 
1.778e-27 
0 
0 
0 
0 
0 
2.33401e-27 
0 
6.541e-27 
5.879e-27 
2.135e-27 
6.712e-27 
5.135e-27 
3.422e-27 
4.484e-27 
5.161e-27 
3.98e-27 
4.895e-27 
4.339e-27 
3.727e-27 
6.288e-27 
5.453e-27 
3.541e-27 
2.15e-27 
5.652e-27 
5.745e-27 
3.74e-27 
2.613e-27 
4.696e-27 
4.988e-27 
4.486e-27 
3.993e-27 
7.015e-27 
3.409e-27 
2.256e-27 
4.962e-27 
4.936e-27 
3.729e-27 
4.696e-27 
4.882e-27 
3.184e-27 
0 
0 
0 
0 
0 
0 
0 
0 
2.45311e-27 
0 
0 
2.786e-27 
0 
0 
4.98435e-27 
0 
0 
0 
6.29324e-27 
0 
1.98262e-27 
0 
5.944e-27 
0 
1.473e-27 
0 
4.391e-27 
0 
0 
5.12668e-27 
0 
0 
4.04096e-27 
7.66991e-27 
7.322e-27 
1.4194e-26 
9.208e-27 
8.33978e-27 
1.1903e-26 
8.118e-27 
9.21739e-27 
9.991e-27 
7.164e-27 
1.5191e-26 
8.702e-27 
6.965e-27 
1.2204e-26 
9.288e-27 
5.693e-27 
1.1153e-26 
8.425e-27 
1.0482e-26 
1.4406e-26 
8.356e-27 
1.287e-26 
1.2907e-26 
8.412e-27 
1.3e-26 
1.2286e-26 
7.309e-27 
1.231e-26 
9.976e-27 
9.513e-27 
9.95948e-27 
6.489e-27 
1.4181e-26 
1.0253e-26 
3.21e-27 
5.176e-27 
4.644e-27 
7.16e-28 
4.073e-27 
4.471e-27 
2.228e-27 
4.804e-27 
5.639e-27 
6.66e-27 
2.998e-27 
3.742e-27 
5.319e-27 
5.76e-27 
2.693e-27 
3.29e-27 
4.748e-27 
5.996e-27 
2.533e-27 
4.884e-27 
6.963e-27 
3.807e-27 
4.073e-27 
5.611e-27 
4.326e-27 
5.001e-27 
4.603e-27 
1.951e-27 
5.466e-27 
4.67e-27 
2.985e-27 
3.595e-27 
5.386e-27 
