ITEM: TIMESTEP
450
ITEM: NUMBER OF CELLS
400
ITEM: BOX BOUNDS oo rr pp
0 10
0 10
-0.5 0.5
ITEM: CELLS c_dens[1] 
2.1931e-26 
2.1998e-26 
2.2764e-26 
2.2779e-26 
2.1494e-26 
2.0259e-26 
2.4356e-26 
2.4343e-26 
2.0895e-26 
1.9634e-26 
2.3123e-26 
2.25507e-26 
2.1118e-26 
2.1042e-26 
2.0203e-26 
2.5643e-26 
2.0821e-26 
1.783e-26 
2.2701e-26 
2.3705e-26 
2.0129e-26 
2.2712e-26 
2.2329e-26 
2.303e-26 
2.0923e-26 
2.2857e-26 
2.0188e-26 
2.1968e-26 
1.8691e-26 
2.1652e-26 
2.096e-26 
1.9781e-26 
2.3404e-26 
2.3177e-26 
0 
2.5455e-26 
2.3763e-26 
2.55657e-26 
2.4849e-26 
2.181e-26 
0 
2.6244e-26 
2.2303e-26 
2.7302e-26 
2.6056e-26 
2.74864e-26 
2.2102e-26 
2.43862e-26 
2.2416e-26 
3.18246e-26 
2.2725e-26 
0 
2.3625e-26 
2.2288e-26 
0 
2.287e-26 
2.7966e-26 
2.4488e-26 
2.436e-26 
2.51565e-26 
2.25075e-26 
2.4105e-26 
0 
2.57347e-26 
2.6028e-26 
0 
2.7194e-26 
1.9342e-26 
0 
0 
1.6093e-26 
0 
0 
1.8762e-26 
1.84913e-26 
0 
1.7309e-26 
1.74535e-26 
0 
1.6701e-26 
8.38467e-27 
0 
2.0287e-26 
1.852e-26 
0 
1.7512e-26 
1.7337e-26 
0 
0 
1.584e-26 
1.7473e-26 
0 
0 
1.5005e-26 
1.584e-26 
0 
0 
1.7722e-26 
0 
0 
2.43e-26 
8.61853e-27 
2.4185e-26 
2.56017e-26 
0 
2.3387e-26 
2.77289e-26 
0 
2.5604e-26 
0 
2.6385e-26 
2.76651e-26 
2.4105e-26 
2.4678e-26 
0 
2.3125e-26 
2.4888e-26 
2.3668e-26 
2.651e-26 
2.2139e-26 
2.3629e-26 
2.93726e-26 
2.3173e-26 
2.2647e-26 
2.1457e-26 
0 
2.2366e-26 
2.38161e-26 
2.3523e-26 
0 
2.3984e-26 
2.82578e-26 
3.0633e-26 
2.3852e-26 
2.5526e-26 
2.4036e-26 
1.9405e-26 
2.3333e-26 
2.0746e-26 
2.1265e-26 
2.3255e-26 
2.1654e-26 
2.1531e-26 
2.2098e-26 
2.0614e-26 
1.9792e-26 
1.9186e-26 
2.2976e-26 
1.7432e-26 
2.343e-26 
2.08e-26 
2.6878e-26 
2.1055e-26 
1.8879e-26 
1.9753e-26 
2.3372e-26 
2.3776e-26 
2.3787e-26 
2.2143e-26 
2.1546e-26 
2.0179e-26 
2.2794e-26 
2.2158e-26 
1.8665e-26 
1.9359e-26 
2.1825e-26 
2.1641e-26 
0 
0 
1.6489e-26 
1.7036e-26 
0 
0 
1.7473e-26 
0 
0 
1.5271e-26 
0 
0 
2.1823e-26 
1.8481e-26 
0 
0 
1.5922e-26 
1.7607e-26 
0 
2.03479e-26 
1.7873e-26 
0 
1.77634e-26 
1.8429e-26 
0 
1.89396e-26 
1.804e-26 
0 
1.34979e-26 
1.5429e-26 
0 
0 
1.9426e-26 
1.4977e-26 
8.596e-27 
5.47066e-27 
1.1421e-26 
1.1036e-26 
1.0244e-26 
8.717e-27 
8.345e-27 
1.3465e-26 
7.443e-27 
8.648e-27 
1.1092e-26 
7.521e-27 
6.595e-27 
1.1702e-26 
5.401e-27 
8.529e-27 
1.2468e-26 
6.779e-27 
8.66338e-27 
1.1343e-26 
6.779e-27 
9.13675e-27 
9.524e-27 
8.50407e-27 
1.4289e-26 
8.438e-27 
1.1834e-26 
6.833e-27 
1.2338e-26 
8.254e-27 
1.0482e-26 
5.877e-27 
5.241e-27 
0 
5.11332e-28 
0 
0 
0 
0 
0 
2.75104e-27 
0 
0 
0 
3.26219e-27 
0 
0 
0 
3.264e-27 
0 
1.99e-28 
3.20142e-27 
0 
4.99705e-27 
0 
0 
4.564e-27 
0 
1.393e-27 
0 
0 
0 
0 
0 
1.03813e-27 
0 
6.926e-27 
4.804e-27 
2.866e-27 
6.699e-27 
5.068e-27 
3.145e-27 
5.799e-27 
3.052e-27 
2.706e-27 
5.241e-27 
3.052e-27 
3.236e-27 
5.903e-27 
4.856e-27 
2.135e-27 
1.923e-27 
5.254e-27 
4.562e-27 
3.872e-27 
1.672e-27 
4.311e-27 
5.823e-27 
3.742e-27 
2.561e-27 
5.215e-27 
3.357e-27 
1.592e-27 
4.458e-27 
3.264e-27 
2.892e-27 
5.518e-27 
4.246e-27 
2.799e-27 
0 
0 
0 
0 
0 
0 
0 
0 
1.43809e-27 
0 
0 
2.786e-27 
0 
0 
2.23147e-27 
0 
0 
0 
3.29726e-27 
0 
0 
0 
5.042e-27 
0 
1.008e-27 
0 
4.724e-27 
0 
0 
3.34495e-27 
0 
0 
4.09446e-27 
1.16561e-26 
6.95e-27 
1.2857e-26 
1.0878e-26 
8.34333e-27 
1.0482e-26 
5.851e-27 
8.18968e-27 
8.624e-27 
7.151e-27 
1.4884e-26 
6.58e-27 
5.308e-27 
1.0296e-26 
7.549e-27 
5.267e-27 
9.34e-27 
6.619e-27 
1.0936e-26 
1.1542e-26 
8.226e-27 
1.3733e-26 
1.17e-26 
8.053e-27 
1.308e-26 
1.0121e-26 
7.642e-27 
1.0932e-26 
7.032e-27 
1.0147e-26 
8.27358e-27 
6.913e-27 
1.2031e-26 
6.422e-27 
2.388e-27 
3.528e-27 
3.716e-27 
3.05e-28 
2.652e-27 
5.358e-27 
1.605e-27 
2.442e-27 
5.226e-27 
5.996e-27 
2.295e-27 
3.357e-27 
5.866e-27 
5.546e-27 
3.225e-27 
3.171e-27 
4.843e-27 
4.538e-27 
2.401e-27 
4.841e-27 
6.872e-27 
3.011e-27 
3.833e-27 
4.43e-27 
2.786e-27 
4.006e-27 
5.626e-27 
2.096e-27 
3.649e-27 
5.081e-27 
2.109e-27 
4.378e-27 
4.683e-27 
