ITEM: TIMESTEP
300
ITEM: NUMBER OF CELLS
400
ITEM: BOX BOUNDS oo rr pp
0 10
0 10
-0.5 0.5
ITEM: CELLS c_dens[1] 
2.2262e-26 
1.8955e-26 
1.9424e-26 
1.9208e-26 
2.0923e-26 
1.855e-26 
2.2141e-26 
2.1267e-26 
2.0774e-26 
2.0415e-26 
2.0032e-26 
1.99397e-26 
2.1176e-26 
2.0694e-26 
2.0047e-26 
2.1079e-26 
2.1014e-26 
1.8124e-26 
2.1438e-26 
2.0257e-26 
2.1375e-26 
1.9372e-26 
2.1038e-26 
1.9143e-26 
2.0897e-26 
2.0045e-26 
2.1715e-26 
2.0787e-26 
1.8773e-26 
1.7832e-26 
2.1834e-26 
1.8386e-26 
2.0482e-26 
2.234e-26 
0 
2.3216e-26 
2.0921e-26 
2.99529e-26 
2.2911e-26 
2.0532e-26 
0 
2.2327e-26 
2.319e-26 
2.1224e-26 
2.2208e-26 
2.16759e-26 
2.2965e-26 
1.9865e-26 
1.9093e-26 
2.23725e-26 
2.2582e-26 
0 
2.2911e-26 
2.1808e-26 
0 
2.2353e-26 
2.5472e-26 
2.1226e-26 
1.9504e-26 
2.23394e-26 
2.14598e-26 
2.311e-26 
0 
2.33575e-26 
2.4713e-26 
0 
2.3748e-26 
1.4715e-26 
0 
0 
1.3041e-26 
0 
0 
1.8892e-26 
2.05829e-26 
0 
1.555e-26 
1.42814e-26 
0 
1.5072e-26 
1.12987e-26 
0 
1.8148e-26 
2.0722e-26 
0 
1.7261e-26 
1.6744e-26 
0 
0 
1.5055e-26 
1.4674e-26 
0 
0 
1.4209e-26 
1.4458e-26 
0 
0 
1.8968e-26 
0 
0 
2.6177e-26 
4.49859e-26 
2.189e-26 
2.32448e-26 
0 
2.2102e-26 
2.19243e-26 
0 
2.5476e-26 
0 
2.0687e-26 
2.90996e-26 
2.2342e-26 
2.2089e-26 
0 
2.2137e-26 
2.2433e-26 
2.0571e-26 
2.5193e-26 
2.2314e-26 
2.2993e-26 
2.61069e-26 
2.2963e-26 
2.2777e-26 
2.2126e-26 
0 
2.266e-26 
2.34125e-26 
2.019e-26 
0 
2.3417e-26 
2.69234e-26 
2.8057e-26 
2.2673e-26 
2.2552e-26 
1.9091e-26 
1.9448e-26 
1.94e-26 
1.974e-26 
1.8827e-26 
1.9569e-26 
2.3573e-26 
2.0177e-26 
2.1252e-26 
1.8319e-26 
2.335e-26 
1.8453e-26 
1.9941e-26 
1.7592e-26 
2.0151e-26 
1.8678e-26 
2.173e-26 
1.8375e-26 
1.8163e-26 
1.8122e-26 
2.2314e-26 
2.1862e-26 
2.0276e-26 
2.2128e-26 
1.9567e-26 
1.9277e-26 
2.2885e-26 
2.2634e-26 
2.0285e-26 
1.9766e-26 
1.7155e-26 
1.884e-26 
0 
0 
1.3119e-26 
1.4737e-26 
0 
0 
1.5998e-26 
0 
0 
1.4488e-26 
0 
0 
1.5654e-26 
1.8931e-26 
0 
0 
1.6718e-26 
1.4103e-26 
0 
1.96006e-26 
2.0378e-26 
0 
1.83496e-26 
1.7618e-26 
0 
1.73901e-26 
1.3954e-26 
0 
1.16561e-26 
1.2641e-26 
0 
0 
1.6091e-26 
1.4527e-26 
5.107e-27 
1.09413e-26 
9.435e-27 
9.074e-27 
9.115e-27 
6.236e-27 
6.926e-27 
1.0731e-26 
6.143e-27 
6.076e-27 
1.0071e-26 
5.427e-27 
5.267e-27 
7.748e-27 
5.546e-27 
6.727e-27 
1.1583e-26 
7.564e-27 
7.94712e-27 
1.0787e-26 
6.911e-27 
8.85692e-27 
9.658e-27 
4.95195e-27 
1.3164e-26 
7.629e-27 
1.0335e-26 
5.453e-27 
9.991e-27 
6.688e-27 
7.588e-27 
4.817e-27 
2.998e-27 
0 
0 
0 
0 
0 
0 
0 
1.04215e-27 
0 
0 
0 
3.00397e-27 
0 
0 
0 
1.99e-27 
0 
3.05e-28 
3.94151e-27 
0 
4.04148e-27 
0 
0 
4.034e-27 
0 
7.96e-28 
0 
0 
0 
0 
0 
7.07492e-28 
0 
5.719e-27 
5.717e-27 
1.804e-27 
4.949e-27 
3.688e-27 
1.817e-27 
4.763e-27 
2.468e-27 
2.877e-27 
5.027e-27 
3.026e-27 
2.388e-27 
5.717e-27 
4.815e-27 
2.349e-27 
1.22e-27 
4.549e-27 
4.737e-27 
3.052e-27 
1.527e-27 
4.205e-27 
4.378e-27 
1.778e-27 
2.189e-27 
4.259e-27 
3.422e-27 
1.287e-27 
4.735e-27 
2.613e-27 
9.02e-28 
4.032e-27 
2.667e-27 
2.76e-27 
0 
0 
0 
0 
0 
0 
0 
0 
1.24967e-27 
0 
0 
2.083e-27 
0 
0 
4.98435e-27 
0 
0 
0 
4.54962e-27 
0 
0 
0 
2.892e-27 
0 
5.97e-28 
0 
3.967e-27 
0 
0 
1.63606e-27 
0 
0 
1.66453e-27 
5.82803e-27 
6.05e-27 
1.3188e-26 
7.988e-27 
8.36281e-27 
1.072e-26 
4.605e-27 
4.92309e-27 
8.291e-27 
4.363e-27 
1.4951e-26 
6.857e-27 
3.928e-27 
8.546e-27 
6.195e-27 
4.763e-27 
9.58e-27 
5.732e-27 
8.131e-27 
1.2617e-26 
6.887e-27 
1.4192e-26 
1.0958e-26 
5.663e-27 
1.0759e-26 
8.265e-27 
4.748e-27 
1.0121e-26 
6.009e-27 
9.061e-27 
1.17623e-26 
6.022e-27 
1.2234e-26 
5.585e-27 
2.667e-27 
2.481e-27 
3.197e-27 
2.79e-28 
2.706e-27 
5.228e-27 
1.447e-27 
2.931e-27 
4.722e-27 
4.073e-27 
1.685e-27 
2.918e-27 
4.856e-27 
4.404e-27 
1.592e-27 
2.494e-27 
4.008e-27 
3.701e-27 
1.592e-27 
4.735e-27 
5.373e-27 
2.176e-27 
2.481e-27 
4.538e-27 
2.667e-27 
3.29e-27 
4.551e-27 
1.99e-27 
3.517e-27 
4.683e-27 
1.313e-27 
2.708e-27 
4.577e-27 
