ITEM: TIMESTEP
400
ITEM: NUMBER OF CELLS
400
ITEM: BOX BOUNDS oo rr pp
0 10
0 10
-0.5 0.5
ITEM: CELLS id 
1 
25 
61 
85 
2 
26 
62 
86 
3 
27 
63 
87 
4 
64 
5 
41 
65 
6 
42 
66 
43 
44 
21 
45 
81 
22 
46 
82 
23 
47 
83 
24 
84 
122 
146 
182 
121 
145 
181 
123 
147 
183 
124 
184 
101 
125 
161 
185 
102 
126 
162 
186 
103 
163 
187 
104 
164 
105 
141 
165 
106 
142 
166 
107 
143 
167 
144 
49 
109 
169 
50 
110 
170 
28 
88 
148 
29 
89 
149 
30 
90 
150 
7 
67 
127 
8 
68 
128 
188 
9 
69 
129 
189 
10 
70 
130 
190 
48 
108 
168 
244 
205 
241 
265 
206 
242 
266 
207 
243 
267 
221 
245 
281 
222 
246 
282 
223 
283 
224 
284 
201 
225 
261 
285 
202 
226 
262 
286 
203 
227 
263 
287 
204 
264 
305 
341 
365 
301 
325 
361 
385 
302 
326 
362 
386 
303 
327 
363 
387 
304 
364 
306 
342 
366 
343 
344 
321 
345 
381 
322 
346 
382 
323 
347 
383 
324 
384 
210 
270 
330 
390 
229 
289 
349 
230 
290 
350 
208 
268 
328 
388 
209 
269 
329 
389 
247 
307 
367 
248 
308 
368 
249 
309 
369 
250 
310 
370 
228 
288 
348 
31 
55 
91 
13 
73 
14 
74 
15 
51 
75 
16 
52 
76 
17 
53 
77 
54 
32 
56 
92 
33 
57 
93 
34 
94 
11 
35 
71 
95 
12 
36 
72 
96 
116 
152 
176 
133 
193 
134 
194 
111 
135 
171 
195 
112 
136 
172 
196 
113 
137 
173 
197 
114 
174 
115 
151 
175 
117 
153 
177 
154 
131 
155 
191 
132 
156 
192 
37 
97 
157 
38 
98 
158 
39 
99 
159 
40 
100 
160 
18 
78 
138 
198 
19 
79 
139 
199 
20 
80 
140 
200 
58 
118 
178 
59 
119 
179 
60 
120 
180 
214 
274 
253 
254 
231 
255 
291 
232 
256 
292 
233 
257 
293 
234 
294 
211 
235 
271 
295 
212 
236 
272 
296 
213 
237 
273 
297 
215 
251 
275 
216 
252 
276 
311 
335 
371 
395 
313 
373 
397 
314 
374 
315 
351 
375 
316 
352 
376 
317 
353 
377 
354 
331 
355 
391 
332 
356 
392 
333 
357 
393 
334 
394 
312 
336 
372 
396 
240 
300 
360 
217 
277 
337 
218 
278 
338 
398 
219 
279 
339 
399 
220 
280 
340 
400 
258 
318 
378 
259 
319 
379 
260 
320 
380 
238 
298 
358 
239 
299 
359 
