ITEM: TIMESTEP
970000
ITEM: NUMBER OF CELLS
80
ITEM: BOX BOUNDS so oo pp
-0.1 0.2
-0.1 0.1
-0.5 0.5
ITEM: CELLS c_dens[1] 
8.36416e-05 
0.000125462 
9.06118e-05 
0.000146373 
0.000118492 
9.06118e-05 
9.75819e-05 
0.000132433 
0.000132433 
0.000111522 
0.000104552 
0.000160313 
0.000139403 
0.000111522 
0.000118492 
0.000118492 
9.06118e-05 
0.000118492 
0.000153343 
0.000153343 
0.000132433 
0.000104552 
0.000104552 
0.000146373 
9.06118e-05 
0.000153343 
9.75819e-05 
0.000111522 
0.000118492 
0.000146373 
0.000125462 
0.000118492 
0.000146373 
0.000139403 
0.000174253 
0.000230014 
0.000188194 
0.000271835 
0.000250925 
0.000223044 
0.000236985 
0.000202134 
0.000236985 
0.000236985 
0.000236985 
0.000230014 
0.000209104 
0.000216074 
0.000264865 
0.000195164 
0.000230014 
0.000250925 
0.000243955 
0.000264865 
0.000271835 
0.000292746 
0.000264865 
0.000278805 
0.000250925 
0.000250925 
0.000216074 
0.000236985 
0.000209104 
0.000264865 
0.000278805 
0.000209104 
0.000236985 
0.000257895 
0.000230014 
0.000230014 
0.000243955 
0.000236985 
0.000243955 
0.000257895 
0.000230014 
0.000285776 
0.000278805 
0.000264865 
0.000264865 
0.000230014 
